 Gaussian 16, Revision A.03,
 Gaussian 16:  EM64L-G16RevA.03 25-Dec-2016

 ---------------------------------------
 #p wb97xd/cc-pvdz sp scf=(maxcycles=20)
 ---------------------------------------

 ------------------
 Base pair stacking
 ------------------
 Symbolic Z-matrix:
 Charge =  0 Multiplicity = 1

                         Standard orientation:
 ---------------------------------------------------------------------
 Center     Atomic      Atomic             Coordinates (Angstroms)
 Number     Number       Type             X           Y           Z
 ---------------------------------------------------------------------
      1          7           0       -6.464708   -1.660351    0.564552
      2          6           0       -7.864774   -1.197401    0.505498
      3          6           0       -4.279400   -1.736729    0.800992
      4          7           0       -4.678854   -3.022789    0.467510
      5          6           0       -5.979429   -2.925304    0.338411
      6          1           0       -6.640253   -3.752333    0.077107
      7          7           0       -2.966661    0.137809    1.371797
      8          6           0       -4.107724    0.834257    1.394934
      9          1           0       -4.003353    1.889705    1.642691
     10          7           0       -5.352492    0.424592    1.159073
     11          6           0       -5.369162   -0.885901    0.864544
     12          6           0       -3.016923   -1.178521    1.072071
     13          7           0       -1.878967   -1.875418    1.048474
     14          1           0       -1.868880   -2.852182    0.831555
     15          1           0       -0.998207   -1.445176    1.246703
     16          1           0       -8.413436   -1.705002    1.169963
     17          1           0       -7.903263   -0.221644    0.718900
     18          1           0       -8.230314   -1.350764   -0.412574
     19          7           0       -2.474709    3.105602   -1.769660
     20          6           0       -1.198962    2.624119   -1.600287
     21          6           0       -2.870876    4.525100   -1.676030
     22          7           0        2.164895    3.184621   -0.942966
     23          1           0        3.000269    2.642204   -0.858211
     24          1           0        2.250602    4.172926   -0.814058
     25          7           0       -0.101811    3.360962   -1.322101
     26          6           0        0.982405    2.613257   -1.217139
     27          7           0        0.993467    1.248229   -1.372364
     28          1           0        1.869268    0.757964   -1.274479
     29          6           0       -0.123414    0.469539   -1.658850
     30          8           0       -0.005144   -0.756134   -1.779141
     31          6           0       -1.295820    1.258820   -1.774572
     32          7           0       -2.606013    0.890566   -2.047854
     33          6           0       -3.267658    2.015858   -2.034883
     34          1           0       -4.339565    2.108027   -2.213161
     35          1           0       -3.546761    4.636943   -0.948375
     36          1           0       -2.066311    5.080611   -1.470278
     37          1           0       -3.265333    4.820836   -2.545367
     38          1           0        6.412711   -1.156296   -0.031314
     39          1           0        6.629956   -1.225503   -1.778504
     40          1           0        5.639449    0.046960   -1.063594
     41          1           0        3.849183   -5.089418   -1.082749
     42          6           0        3.755689   -4.004753   -1.137335
     43          8           0        1.401734   -4.038012   -1.428710
     44          6           0        2.461757   -3.421897   -1.321307
     45          1           0        1.559205   -1.594418   -1.505920
     46          7           0        2.455352   -2.042716   -1.376732
     47          8           0        3.432249    0.006978   -1.336454
     48          6           0        3.537978   -1.205352   -1.275292
     49          1           0        5.836315   -3.607581   -0.894358
     50          6           0        4.830439   -3.214154   -1.035013
     51          6           0        5.936199   -0.988410   -0.985685
     52          7           0        4.750605   -1.842351   -1.099279
     53          1           0        3.662617    4.059158    3.204249
     54          1           0        2.510505    4.080985    2.049151
     55          1           0        4.087347    4.123560    1.629806
     56          1           0        1.626436   -2.875842    1.523414
     57          1           0        3.220554   -2.463920    1.969749
     58          7           0        2.295981   -2.163204    1.733191
     59          6           0        1.971365   -0.869128    1.699279
     60          6           0        2.390446    1.463739    1.908594
     61          7           0        1.141026    1.838372    1.587619
     62          1           0       -0.650030    0.986970    1.070081
     63          6           0        0.383178    0.772076    1.339444
     64          7           0        0.706453   -0.524829    1.372878
     65          1           0        5.489118    1.823023    2.757926
     66          6           0        4.507941    1.438611    2.477797
     67          7           0        4.215162    0.167899    2.346417
     68          6           0        2.875515    0.169804    1.985724
     69          6           0        3.425713    3.753463    2.282068
     70          7           0        3.450495    2.278863    2.227774
 ---------------------------------------------------------------------

 SCF Done:  E(RwB97XD) =  -2048.74169516     A.U. after   15 cycles

 The electronic state is 1-A.
 Alpha  occ. eigenvalues --  -19.26077 -19.22385 -19.20747 -14.52677 -14.51883
 Alpha  occ. eigenvalues --  -14.48850 -14.48518 -14.48024 -14.47536 -14.47016
 Alpha  occ. eigenvalues --  -14.46998 -14.44897 -14.43454 -14.43308 -14.42179
 Alpha  occ. eigenvalues --  -14.41951 -14.41180 -14.40848 -14.40621 -14.39883
 Alpha  occ. eigenvalues --  -10.45692 -10.41380 -10.40448 -10.39180 -10.38336
 Alpha  occ. eigenvalues --  -10.38140 -10.37441 -10.36425 -10.35241 -10.35139
 Alpha  occ. eigenvalues --  -10.34891 -10.34461 -10.33848 -10.33612 -10.33293
 Alpha  occ. eigenvalues --  -10.33093 -10.32820 -10.31958 -10.31442 -10.30983
 Alpha  occ. eigenvalues --  -10.30754 -10.28260 -10.28216  -1.19645  -1.14565
 Alpha  occ. eigenvalues --   -1.13377  -1.13349  -1.11091  -1.10675  -1.09565
 Alpha  occ. eigenvalues --   -1.08751  -1.08506  -1.04698  -1.04086  -1.02718
 Alpha  occ. eigenvalues --   -1.00413  -1.00159  -1.00006  -0.98657  -0.96732
 Alpha  occ. eigenvalues --   -0.96654  -0.96031  -0.92353  -0.91344  -0.86989
 Alpha  occ. eigenvalues --   -0.85418  -0.84215  -0.83761  -0.83689  -0.82599
 Alpha  occ. eigenvalues --   -0.82077  -0.79147  -0.76376  -0.74755  -0.74076
 Alpha  occ. eigenvalues --   -0.73859  -0.73581  -0.72646  -0.70791  -0.69788
 Alpha  occ. eigenvalues --   -0.67565  -0.66770  -0.66150  -0.66054  -0.64649
 Alpha  occ. eigenvalues --   -0.63922  -0.63647  -0.62841  -0.62445  -0.61956
 Alpha  occ. eigenvalues --   -0.60089  -0.59966  -0.59895  -0.59735  -0.59288
 Alpha  occ. eigenvalues --   -0.58923  -0.58623  -0.56786  -0.56314  -0.56162
 Alpha  occ. eigenvalues --   -0.56149  -0.55199  -0.54974  -0.54643  -0.54546
 Alpha  occ. eigenvalues --   -0.53810  -0.53643  -0.53095  -0.53082  -0.52787
 Alpha  occ. eigenvalues --   -0.52538  -0.52163  -0.51534  -0.50470  -0.50304
 Alpha  occ. eigenvalues --   -0.49957  -0.49630  -0.49263  -0.49032  -0.48657
 Alpha  occ. eigenvalues --   -0.48563  -0.48493  -0.48345  -0.47980  -0.47533
 Alpha  occ. eigenvalues --   -0.46696  -0.45719  -0.44797  -0.44317  -0.43764
 Alpha  occ. eigenvalues --   -0.40875  -0.40015  -0.39618  -0.37602  -0.37364
 Alpha  occ. eigenvalues --   -0.37200  -0.36911  -0.36812  -0.35880  -0.34365
 Alpha  occ. eigenvalues --   -0.34022  -0.33559  -0.33454  -0.33208  -0.33135
 Alpha  occ. eigenvalues --   -0.32743  -0.32499  -0.32266  -0.31900  -0.30604
 Alpha  occ. eigenvalues --   -0.30118  -0.29247  -0.25711  -0.25365
 Alpha virt. eigenvalues --    0.02697   0.04678   0.07554   0.08225   0.08488
 Alpha virt. eigenvalues --    0.09093   0.09468   0.11100   0.11477   0.11763
 Alpha virt. eigenvalues --    0.12412   0.14228   0.14254   0.14723   0.15016

 Mulliken charges:
               1
     1  N   -0.311738
     2  C    0.181217
     3  C    0.036348
     4  N   -0.259188
     5  C    0.133750
     6  H    0.025649
     7  N   -0.294542
     8  C    0.138583
     9  H    0.007104
    10  N   -0.292286
    11  C    0.246255
    12  C    0.125217
    13  N   -0.055347
    14  H    0.110509
    15  H    0.088589
    16  H    0.024576
    17  H    0.033627
    18  H    0.025939
    19  N   -0.312534
    20  C    0.244719
    21  C    0.181412
    22  N   -0.112038
    23  H    0.115431
    24  H    0.115015
    25  N   -0.299681
    26  C    0.226742
    27  N   -0.127552
    28  H    0.112737
    29  C    0.155560
    30  O   -0.316877
    31  C    0.009099
    32  N   -0.223599
    33  C    0.129231
    34  H    0.028788
    35  H    0.029036
    36  H    0.028047
    37  H    0.024901
    38  H    0.064089
    39  H    0.058138
    40  H    0.074380
    41  H    0.032062
    42  C   -0.111156
    43  O   -0.265525
    44  C    0.157119
    45  H    0.134516
    46  N   -0.124048
    47  O   -0.346770
    48  C    0.352800
    49  H    0.049155
    50  C    0.166182
    51  C    0.043203
    52  N   -0.290573
    53  H    0.034861
    54  H    0.044260
    55  H    0.019331
    56  H    0.128795
    57  H    0.113671
    58  N   -0.067062
    59  C    0.083460
    60  C    0.224063
    61  N   -0.258424
    62  H    0.047688
    63  C    0.162975
    64  N   -0.301226
    65  H    0.032747
    66  C    0.134035
    67  N   -0.268361
    68  C    0.041690
    69  C    0.172528
    70  N   -0.311301
 Sum of Mulliken charges =  -0.00000

 Dipole moment (field-independent basis, Debye):
    X=              8.9675    Y=              5.2331    Z=              1.8851  Tot=             10.5524
 Quadrupole moment (field-independent basis, Debye-Ang):
   XX=           -155.8073   YY=           -213.2267   ZZ=           -251.8851
   XY=             -3.1058   XZ=              6.3723   YZ=             -7.1089

 Normal termination of Gaussian 16 at Fri Jan 26 15:47:06 2018.
