 Gaussian 16, Revision A.03,
 Gaussian 16:  EM64L-G16RevA.03 25-Dec-2016

 ---------------------------------------
 #p wb97xd/cc-pvdz sp scf=(maxcycles=20)
 ---------------------------------------

 ------------------
 Base pair stacking
 ------------------
 Symbolic Z-matrix:
 Charge =  0 Multiplicity = 1

                         Standard orientation:
 ---------------------------------------------------------------------
 Center     Atomic      Atomic             Coordinates (Angstroms)
 Number     Number       Type             X           Y           Z
 ---------------------------------------------------------------------
      1          7           0       -7.234704   -1.562369   -0.004671
      2          6           0       -8.641095   -1.118841   -0.062493
      3          6           0       -5.058652   -1.631079    0.307423
      4          7           0       -5.417928   -2.872972   -0.195919
      5          6           0       -6.714534   -2.781869   -0.363797
      6          1           0       -7.347391   -3.581414   -0.750020
      7          7           0       -3.808330    0.180739    1.154165
      8          6           0       -4.963987    0.850168    1.216602
      9          1           0       -4.891417    1.868870    1.595092
     10          7           0       -6.190069    0.452037    0.883257
     11          6           0       -6.167852   -0.812563    0.430800
     12          6           0       -3.819358   -1.089561    0.694496
     13          7           0       -2.666769   -1.759436    0.631424
     14          1           0       -2.627818   -2.701941    0.297666
     15          1           0       -1.803389   -1.342259    0.915479
     16          1           0       -9.203341   -1.713054    0.512797
     17          1           0       -8.708264   -0.177371    0.266522
     18          1           0       -8.968643   -1.164502   -1.006220
     19          7           0       -1.523637    3.078380   -1.938479
     20          6           0       -0.265291    2.581694   -1.697806
     21          6           0       -1.879041    4.510428   -1.998843
     22          7           0        3.103632    3.113378   -1.042521
     23          1           0        3.921285    2.559619   -0.887498
     24          1           0        3.216597    4.106953   -1.014798
     25          7           0        0.848934    3.312553   -1.477811
     26          6           0        1.908933    2.549837   -1.277107
     27          7           0        1.881955    1.176307   -1.290422
     28          1           0        2.741355    0.674618   -1.127019
     29          6           0        0.746890    0.403534   -1.514705
     30          8           0        0.830656   -0.830829   -1.505759
     31          6           0       -0.399867    1.208917   -1.731950
     32          7           0       -1.716205    0.850965   -1.988880
     33          6           0       -2.344445    1.989535   -2.103783
     34          1           0       -3.410430    2.092550   -2.309531
     35          1           0       -2.561928    4.715888   -1.298658
     36          1           0       -1.061512    5.061643   -1.837332
     37          1           0       -2.251775    4.725326   -2.900893
     38          1           0        7.207527   -1.226300    0.387109
     39          1           0        7.448268   -1.482280   -1.339488
     40          1           0        6.485398   -0.115455   -0.777321
     41          1           0        4.544660   -5.174266   -0.297935
     42          6           0        4.484055   -4.098920   -0.465818
     43          8           0        2.134672   -4.096618   -0.793735
     44          6           0        3.210742   -3.502452   -0.731781
     45          1           0        2.365379   -1.679532   -1.119904
     46          7           0        3.245897   -2.136812   -0.929340
     47          8           0        4.282223   -0.122002   -1.083545
     48          6           0        4.351180   -1.323927   -0.895739
     49          1           0        6.571721   -3.736824   -0.228402
     50          6           0        5.580071   -3.332230   -0.426653
     51          6           0        6.750252   -1.145045   -0.587754
     52          7           0        5.541745   -1.972786   -0.633547
     53          1           0        2.662869    3.956717    3.713032
     54          1           0        1.554624    4.100979    2.524291
     55          1           0        3.144804    4.220655    2.176316
     56          1           0        0.838851   -2.752556    1.119952
     57          1           0        2.406018   -2.372205    1.676190
     58          7           0        1.484771   -2.060061    1.441464
     59          6           0        1.134242   -0.777119    1.552629
     60          6           0        1.495544    1.519086    2.061180
     61          7           0        0.251346    1.909569    1.738817
     62          1           0       -1.500587    1.098605    1.050560
     63          6           0       -0.473850    0.869388    1.332595
     64          7           0       -0.124586   -0.416320    1.220570
     65          1           0        4.551891    1.822624    3.070516
     66          6           0        3.590287    1.459307    2.706837
     67          7           0        3.329693    0.209636    2.410037
     68          6           0        2.004761    0.233637    1.999274
     69          6           0        2.467222    3.762521    2.751778
     70          7           0        2.525340    2.306305    2.519212
 ---------------------------------------------------------------------

 SCF Done:  E(RwB97XD) =  -2048.74280255     A.U. after   15 cycles

 The electronic state is 1-A.
 Alpha  occ. eigenvalues --  -19.26291 -19.22930 -19.21145 -14.52993 -14.50776
 Alpha  occ. eigenvalues --  -14.49105 -14.48774 -14.48521 -14.47625 -14.47563
 Alpha  occ. eigenvalues --  -14.45812 -14.43862 -14.42612 -14.42266 -14.42106
 Alpha  occ. eigenvalues --  -14.41928 -14.41466 -14.41103 -14.40799 -14.40021
 Alpha  occ. eigenvalues --  -10.45996 -10.41863 -10.40944 -10.38759 -10.38412
 Alpha  occ. eigenvalues --  -10.37796 -10.36383 -10.35684 -10.35315 -10.35292
 Alpha  occ. eigenvalues --  -10.34741 -10.34116 -10.33787 -10.33568 -10.33347
 Alpha  occ. eigenvalues --  -10.32980 -10.32557 -10.31686 -10.31135 -10.30931
 Alpha  occ. eigenvalues --  -10.30759 -10.28527 -10.28521  -1.19921  -1.13908
 Alpha  occ. eigenvalues --   -1.13810  -1.13411  -1.11358  -1.10994  -1.09884
 Alpha  occ. eigenvalues --   -1.09221  -1.07144  -1.04877  -1.03232  -1.02703
 Alpha  occ. eigenvalues --   -1.00520  -1.00294  -0.99232  -0.99033  -0.96947
 Alpha  occ. eigenvalues --   -0.96926  -0.94748  -0.92503  -0.91642  -0.85861
 Alpha  occ. eigenvalues --   -0.84520  -0.84286  -0.84162  -0.83915  -0.82844
 Alpha  occ. eigenvalues --   -0.82285  -0.79475  -0.75167  -0.75074  -0.74280
 Alpha  occ. eigenvalues --   -0.73979  -0.72860  -0.72818  -0.70981  -0.68539
 Alpha  occ. eigenvalues --   -0.67978  -0.67135  -0.66217  -0.65002  -0.64899
 Alpha  occ. eigenvalues --   -0.64221  -0.63160  -0.62659  -0.62352  -0.62257
 Alpha  occ. eigenvalues --   -0.60100  -0.60080  -0.60042  -0.59111  -0.58677
 Alpha  occ. eigenvalues --   -0.58386  -0.57837  -0.56925  -0.56448  -0.56382
 Alpha  occ. eigenvalues --   -0.56377  -0.55233  -0.54958  -0.54612  -0.54132
 Alpha  occ. eigenvalues --   -0.53848  -0.53599  -0.53387  -0.52930  -0.52209
 Alpha  occ. eigenvalues --   -0.51950  -0.51628  -0.51088  -0.50697  -0.50650
 Alpha  occ. eigenvalues --   -0.50104  -0.49991  -0.49436  -0.49138  -0.48977
 Alpha  occ. eigenvalues --   -0.48678  -0.48514  -0.48038  -0.47901  -0.47508
 Alpha  occ. eigenvalues --   -0.46877  -0.45192  -0.45038  -0.44613  -0.43008
 Alpha  occ. eigenvalues --   -0.41082  -0.39904  -0.39017  -0.37777  -0.37731
 Alpha  occ. eigenvalues --   -0.37115  -0.36820  -0.35772  -0.35604  -0.35091
 Alpha  occ. eigenvalues --   -0.34032  -0.33492  -0.33457  -0.33226  -0.32943
 Alpha  occ. eigenvalues --   -0.32645  -0.32403  -0.32271  -0.32035  -0.30912
 Alpha  occ. eigenvalues --   -0.30226  -0.28057  -0.25928  -0.25675
 Alpha virt. eigenvalues --    0.02378   0.05804   0.07824   0.08064   0.08584
 Alpha virt. eigenvalues --    0.09050   0.09507   0.11091   0.11651   0.12352
 Alpha virt. eigenvalues --    0.12843   0.14032   0.14357   0.14777   0.15808

 Mulliken charges:
               1
     1  N   -0.310665
     2  C    0.181067
     3  C    0.027458
     4  N   -0.258359
     5  C    0.132597
     6  H    0.026274
     7  N   -0.291651
     8  C    0.131353
     9  H    0.010793
    10  N   -0.289453
    11  C    0.240817
    12  C    0.121473
    13  N   -0.052739
    14  H    0.109235
    15  H    0.090921
    16  H    0.025474
    17  H    0.035251
    18  H    0.025415
    19  N   -0.310487
    20  C    0.260518
    21  C    0.182315
    22  N   -0.122389
    23  H    0.116370
    24  H    0.118164
    25  N   -0.302090
    26  C    0.227349
    27  N   -0.129565
    28  H    0.120820
    29  C    0.174421
    30  O   -0.324112
    31  C   -0.019644
    32  N   -0.217154
    33  C    0.130095
    34  H    0.031895
    35  H    0.030684
    36  H    0.027619
    37  H    0.025423
    38  H    0.062971
    39  H    0.061084
    40  H    0.075613
    41  H    0.034079
    42  C   -0.105446
    43  O   -0.273122
    44  C    0.152764
    45  H    0.136614
    46  N   -0.133373
    47  O   -0.349990
    48  C    0.363795
    49  H    0.051135
    50  C    0.175139
    51  C    0.042351
    52  N   -0.297584
    53  H    0.029205
    54  H    0.043549
    55  H    0.013482
    56  H    0.127587
    57  H    0.111505
    58  N   -0.051243
    59  C    0.091796
    60  C    0.239186
    61  N   -0.266406
    62  H    0.036213
    63  C    0.166642
    64  N   -0.297795
    65  H    0.025850
    66  C    0.125909
    67  N   -0.268083
    68  C    0.025532
    69  C    0.183709
    70  N   -0.308160
 Sum of Mulliken charges =  -0.00000

 Dipole moment (field-independent basis, Debye):
    X=              9.3455    Y=              5.0177    Z=              0.9427  Tot=             10.6492
 Quadrupole moment (field-independent basis, Debye-Ang):
   XX=           -147.6116   YY=           -213.8153   ZZ=           -247.5106
   XY=             -0.3961   XZ=             13.7092   YZ=             -5.3674

 Normal termination of Gaussian 16 at Fri Jan 26 12:16:09 2018.
