 Gaussian 16, Revision A.03,
 Gaussian 16:  EM64L-G16RevA.03 25-Dec-2016

 ---------------------------------------
 #p wb97xd/cc-pvdz sp scf=(maxcycles=20)
 ---------------------------------------

 ------------------
 Base pair stacking
 ------------------
 Symbolic Z-matrix:
 Charge =  0 Multiplicity = 1

                         Standard orientation:
 ---------------------------------------------------------------------
 Center     Atomic      Atomic             Coordinates (Angstroms)
 Number     Number       Type             X           Y           Z
 ---------------------------------------------------------------------
      1          7           0        4.929081   -2.061183   -1.599838
      2          6           0        6.337753   -1.661995   -1.784984
      3          6           0        2.734562   -2.038101   -1.455380
      4          7           0        3.127193   -3.342196   -1.191014
      5          6           0        4.433592   -3.303910   -1.288623
      6          1           0        5.091643   -4.160926   -1.142158
      7          7           0        1.428854   -0.104034   -1.798143
      8          6           0        2.579016    0.540410   -2.020425
      9          1           0        2.481137    1.600496   -2.250407
     10          7           0        3.826068    0.074148   -2.001339
     11          6           0        3.834228   -1.236961   -1.709204
     12          6           0        1.470693   -1.422505   -1.506661
     13          7           0        0.323641   -2.067542   -1.284456
     14          1           0        0.307131   -3.043736   -1.065405
     15          1           0       -0.557808   -1.597259   -1.329355
     16          1           0        6.740102   -2.191063   -2.532231
     17          1           0        6.382773   -0.688103   -2.005471
     18          1           0        6.848917   -1.835419   -0.943175
     19          7           0        4.170565    3.075614    1.041445
     20          6           0        2.864734    2.656117    1.124427
     21          6           0        4.606865    4.459984    0.769659
     22          7           0       -0.534066    3.357185    0.988719
     23          1           0       -1.394638    2.858204    1.087058
     24          1           0       -0.597045    4.336897    0.796579
     25          7           0        1.769628    3.431884    0.972839
     26          6           0        0.651629    2.741085    1.108934
     27          7           0        0.607311    1.393620    1.373276
     28          1           0       -0.293005    0.947910    1.461180
     29          6           0        1.721438    0.575671    1.533119
     30          8           0        1.571745   -0.629486    1.769605
     31          6           0        2.929891    1.303641    1.389682
     32          7           0        4.250055    0.882523    1.471588
     33          6           0        4.948528    1.964709    1.258937
     34          1           0        6.038145    2.008698    1.249728
     35          1           0        5.154265    4.480674   -0.066238
     36          1           0        3.804154    5.043850    0.655561
     37          1           0        5.155123    4.794819    1.535243
     38          1           0       -5.060459   -0.790868    1.143721
     39          1           0       -4.982080   -0.721569    2.902615
     40          1           0       -4.072011    0.437981    1.933820
     41          1           0       -2.530481   -4.776691    2.070585
     42          6           0       -2.381795   -3.697936    2.021457
     43          8           0       -0.016186   -3.843236    1.921777
     44          6           0       -1.051160   -3.177471    1.941665
     45          1           0       -0.051397   -1.395443    1.826903
     46          7           0       -0.975203   -1.800466    1.884024
     47          8           0       -1.854338    0.292968    1.840715
     48          6           0       -2.021758   -0.912690    1.895683
     49          1           0       -4.454176   -3.202238    2.094269
     50          6           0       -3.422782   -2.857240    2.034717
     51          6           0       -4.422623   -0.581864    1.989623
     52          7           0       -3.273357   -1.491087    1.974235
     53          1           0       -5.233627    4.119346   -2.473966
     54          1           0       -3.899701    4.084532   -1.535068
     55          1           0       -5.376997    4.196367   -0.850108
     56          1           0       -3.252595   -2.907141   -1.143704
     57          1           0       -4.879611   -2.422014   -1.309828
     58          7           0       -3.915488   -2.164220   -1.237473
     59          6           0       -3.531900   -0.886218   -1.264930
     60          6           0       -3.875259    1.463992   -1.407535
     61          7           0       -2.573601    1.780651   -1.308355
     62          1           0       -0.760327    0.847360   -1.104427
     63          6           0       -1.833136    0.680306   -1.190666
     64          7           0       -2.215442   -0.600574   -1.162961
     65          1           0       -7.054610    1.965928   -1.710812
     66          6           0       -6.058158    1.536567   -1.602747
     67          7           0       -5.804654    0.253442   -1.519088
     68          6           0       -4.424179    0.193533   -1.394964
     69          6           0       -4.855184    3.799519   -1.605355
     70          7           0       -4.936662    2.327317   -1.542067
 ---------------------------------------------------------------------

 SCF Done:  E(RwB97XD) =  -2048.74895874     A.U. after   15 cycles

 The electronic state is 1-A.
 Alpha  occ. eigenvalues --  -19.25414 -19.21675 -19.20439 -14.52614 -14.52138
 Alpha  occ. eigenvalues --  -14.48898 -14.48760 -14.48037 -14.47433 -14.46702
 Alpha  occ. eigenvalues --  -14.46350 -14.45595 -14.44759 -14.44718 -14.42445
 Alpha  occ. eigenvalues --  -14.41892 -14.40841 -14.40703 -14.40464 -14.40067
 Alpha  occ. eigenvalues --  -10.45102 -10.41064 -10.40403 -10.39800 -10.38167
 Alpha  occ. eigenvalues --  -10.38082 -10.37739 -10.37469 -10.36134 -10.35249
 Alpha  occ. eigenvalues --  -10.34764 -10.34274 -10.34033 -10.33431 -10.33297
 Alpha  occ. eigenvalues --  -10.32971 -10.32782 -10.32683 -10.31020 -10.30952
 Alpha  occ. eigenvalues --  -10.30214 -10.28021 -10.28012  -1.19041  -1.15382
 Alpha  occ. eigenvalues --   -1.13042  -1.12677  -1.10664  -1.10505  -1.09737
 Alpha  occ. eigenvalues --   -1.09013  -1.08376  -1.05277  -1.04746  -1.02097
 Alpha  occ. eigenvalues --   -1.01188  -1.00220  -0.99491  -0.98416  -0.97269
 Alpha  occ. eigenvalues --   -0.96535  -0.96362  -0.92437  -0.90900  -0.87870
 Alpha  occ. eigenvalues --   -0.86099  -0.84039  -0.83337  -0.83269  -0.82461
 Alpha  occ. eigenvalues --   -0.81725  -0.78645  -0.77351  -0.75170  -0.74514
 Alpha  occ. eigenvalues --   -0.73441  -0.73019  -0.72542  -0.70786  -0.70588
 Alpha  occ. eigenvalues --   -0.67249  -0.67149  -0.66247  -0.65946  -0.64595
 Alpha  occ. eigenvalues --   -0.64283  -0.63614  -0.62518  -0.62386  -0.61575
 Alpha  occ. eigenvalues --   -0.60853  -0.60482  -0.60139  -0.59540  -0.59347
 Alpha  occ. eigenvalues --   -0.59239  -0.58109  -0.56629  -0.56252  -0.55719
 Alpha  occ. eigenvalues --   -0.55603  -0.55532  -0.55252  -0.54581  -0.54091
 Alpha  occ. eigenvalues --   -0.53939  -0.53503  -0.53454  -0.53050  -0.52912
 Alpha  occ. eigenvalues --   -0.52785  -0.52118  -0.51218  -0.50220  -0.50197
 Alpha  occ. eigenvalues --   -0.50004  -0.49701  -0.49568  -0.49142  -0.48667
 Alpha  occ. eigenvalues --   -0.48542  -0.48176  -0.47973  -0.47610  -0.47138
 Alpha  occ. eigenvalues --   -0.46454  -0.45669  -0.45361  -0.44287  -0.43694
 Alpha  occ. eigenvalues --   -0.40995  -0.40802  -0.39088  -0.37999  -0.37870
 Alpha  occ. eigenvalues --   -0.37191  -0.37165  -0.36572  -0.35483  -0.35078
 Alpha  occ. eigenvalues --   -0.34780  -0.33761  -0.33137  -0.33041  -0.32800
 Alpha  occ. eigenvalues --   -0.32521  -0.32386  -0.31835  -0.31771  -0.30479
 Alpha  occ. eigenvalues --   -0.30395  -0.30045  -0.25577  -0.25242
 Alpha virt. eigenvalues --    0.02774   0.04197   0.06465   0.08383   0.08970
 Alpha virt. eigenvalues --    0.09367   0.09905   0.10360   0.11313   0.11348
 Alpha virt. eigenvalues --    0.13021   0.14392   0.14686   0.14945   0.15057

 Mulliken charges:
               1
     1  N   -0.313320
     2  C    0.183499
     3  C    0.051774
     4  N   -0.258915
     5  C    0.140468
     6  H    0.025989
     7  N   -0.297657
     8  C    0.133908
     9  H    0.010840
    10  N   -0.282836
    11  C    0.262295
    12  C    0.102991
    13  N   -0.068026
    14  H    0.112147
    15  H    0.080754
    16  H    0.021325
    17  H    0.032011
    18  H    0.029529
    19  N   -0.310764
    20  C    0.250104
    21  C    0.180669
    22  N   -0.111272
    23  H    0.113134
    24  H    0.115013
    25  N   -0.311271
    26  C    0.239389
    27  N   -0.143340
    28  H    0.116398
    29  C    0.192067
    30  O   -0.322553
    31  C   -0.015478
    32  N   -0.227050
    33  C    0.128997
    34  H    0.021897
    35  H    0.028133
    36  H    0.028911
    37  H    0.024428
    38  H    0.055755
    39  H    0.060162
    40  H    0.074628
    41  H    0.029348
    42  C   -0.117513
    43  O   -0.259922
    44  C    0.172548
    45  H    0.133449
    46  N   -0.126762
    47  O   -0.345704
    48  C    0.348466
    49  H    0.042800
    50  C    0.161131
    51  C    0.038736
    52  N   -0.280020
    53  H    0.035142
    54  H    0.038847
    55  H    0.030054
    56  H    0.118003
    57  H    0.117711
    58  N   -0.060212
    59  C    0.084093
    60  C    0.254223
    61  N   -0.276500
    62  H    0.036394
    63  C    0.176164
    64  N   -0.312313
    65  H    0.039492
    66  C    0.140153
    67  N   -0.263723
    68  C    0.025181
    69  C    0.179966
    70  N   -0.313962
 Sum of Mulliken charges =  -0.00000

 Dipole moment (field-independent basis, Debye):
    X=             -9.0164    Y=              5.7884    Z=             -1.1334  Tot=             10.7743
 Quadrupole moment (field-independent basis, Debye-Ang):
   XX=           -167.3154   YY=           -211.4764   ZZ=           -252.0552
   XY=              6.2626   XZ=            -12.2789   YZ=              5.0694

 Normal termination of Gaussian 16 at Thu Jan 25 20:37:55 2018.
