 Gaussian 16, Revision A.03,
 Gaussian 16:  EM64L-G16RevA.03 25-Dec-2016

 ---------------------------------------
 #p wb97xd/cc-pvdz sp scf=(maxcycles=20)
 ---------------------------------------

 ------------------
 Base pair stacking
 ------------------
 Symbolic Z-matrix:
 Charge =  0 Multiplicity = 1

                         Standard orientation:
 ---------------------------------------------------------------------
 Center     Atomic      Atomic             Coordinates (Angstroms)
 Number     Number       Type             X           Y           Z
 ---------------------------------------------------------------------
      1          7           0       -6.705421   -1.618454    0.400109
      2          6           0       -8.098890   -1.151773    0.264256
      3          6           0       -4.529586   -1.692404    0.712505
      4          7           0       -4.928984   -2.995533    0.453504
      5          6           0       -6.223856   -2.898819    0.275662
      6          1           0       -6.882898   -3.737453    0.049167
      7          7           0       -3.220087    0.208135    1.198415
      8          6           0       -4.355355    0.911709    1.137265
      9          1           0       -4.250071    1.980817    1.316663
     10          7           0       -5.595307    0.494875    0.888932
     11          6           0       -5.613587   -0.832398    0.682943
     12          6           0       -3.271813   -1.125097    0.986537
     13          7           0       -2.139631   -1.829135    1.047154
     14          1           0       -2.130848   -2.818374    0.896962
     15          1           0       -1.262106   -1.392014    1.244663
     16          1           0       -8.672949   -1.609848    0.943079
     17          1           0       -8.135958   -0.163599    0.410084
     18          1           0       -8.435949   -1.364524   -0.652876
     19          7           0       -2.211057    3.025283   -1.796596
     20          6           0       -0.940062    2.549715   -1.581061
     21          6           0       -2.619170    4.441667   -1.707120
     22          7           0        2.391913    3.123946   -0.787363
     23          1           0        3.226578    2.585632   -0.674204
     24          1           0        2.466521    4.111623   -0.647185
     25          7           0        0.140836    3.290472   -1.253957
     26          6           0        1.224587    2.548130   -1.112467
     27          7           0        1.249993    1.184535   -1.278199
     28          1           0        2.124210    0.698480   -1.149903
     29          6           0        0.149957    0.401878   -1.614698
     30          8           0        0.280270   -0.822054   -1.740175
     31          6           0       -1.021739    1.185383   -1.770064
     32          7           0       -2.317934    0.811932   -2.097673
     33          6           0       -2.986366    1.933269   -2.101622
     34          1           0       -4.050986    2.020798   -2.321192
     35          1           0       -3.323786    4.543583   -1.005741
     36          1           0       -1.826668    5.000040   -1.465379
     37          1           0       -2.980926    4.742377   -2.588889
     38          1           0        6.626773   -1.200063    0.255517
     39          1           0        6.912931   -1.253466   -1.482273
     40          1           0        5.887422    0.007321   -0.796606
     41          1           0        4.130357   -5.138873   -0.927787
     42          6           0        4.032524   -4.054336   -0.977225
     43          8           0        1.692083   -4.098638   -1.361255
     44          6           0        2.743321   -3.477385   -1.207247
     45          1           0        1.837707   -1.653622   -1.412411
     46          7           0        2.730771   -2.097845   -1.251703
     47          8           0        3.692934   -0.043007   -1.156413
     48          6           0        3.803491   -1.255180   -1.100964
     49          1           0        6.099565   -3.647317   -0.649363
     50          6           0        5.097628   -3.258498   -0.826295
     51          6           0        6.187129   -1.026952   -0.715470
     52          7           0        5.012095   -1.886681   -0.882538
     53          1           0        3.379724    4.202643    2.978506
     54          1           0        2.265642    4.153583    1.787492
     55          1           0        3.855475    4.157812    1.418039
     56          1           0        1.340048   -2.817176    1.702806
     57          1           0        2.922390   -2.386044    2.172286
     58          7           0        2.008495   -2.096210    1.885898
     59          6           0        1.696120   -0.805362    1.754319
     60          6           0        2.127996    1.533638    1.819656
     61          7           0        0.892792    1.893553    1.433484
     62          1           0       -0.887823    1.020393    0.916147
     63          6           0        0.134316    0.817708    1.233018
     64          7           0        0.445344   -0.475975    1.364268
     65          1           0        5.200633    1.930028    2.743762
     66          6           0        4.225771    1.533725    2.458220
     67          7           0        3.926616    0.258913    2.403196
     68          6           0        2.599353    0.244844    1.999574
     69          6           0        3.170062    3.836815    2.071750
     70          7           0        3.184093    2.361785    2.117716
 ---------------------------------------------------------------------

 SCF Done:  E(RwB97XD) =  -2048.73345278     A.U. after   15 cycles

 The electronic state is 1-A.
 Alpha  occ. eigenvalues --  -19.26024 -19.22279 -19.20731 -14.52631 -14.51771
 Alpha  occ. eigenvalues --  -14.48856 -14.48735 -14.48041 -14.47353 -14.47092
 Alpha  occ. eigenvalues --  -14.46867 -14.44746 -14.43262 -14.42991 -14.42159
 Alpha  occ. eigenvalues --  -14.42111 -14.41415 -14.40849 -14.40848 -14.40082
 Alpha  occ. eigenvalues --  -10.45658 -10.41409 -10.40372 -10.39018 -10.38329
 Alpha  occ. eigenvalues --  -10.38061 -10.37342 -10.36233 -10.35359 -10.35293
 Alpha  occ. eigenvalues --  -10.34620 -10.34464 -10.34074 -10.33620 -10.33326
 Alpha  occ. eigenvalues --  -10.33300 -10.33039 -10.31838 -10.31358 -10.30978
 Alpha  occ. eigenvalues --  -10.30913 -10.28501 -10.28241  -1.19603  -1.14483
 Alpha  occ. eigenvalues --   -1.13364  -1.13278  -1.11319  -1.10683  -1.09518
 Alpha  occ. eigenvalues --   -1.08812  -1.08325  -1.04916  -1.03895  -1.02697
 Alpha  occ. eigenvalues --   -1.00481  -1.00383  -0.99951  -0.98628  -0.96941
 Alpha  occ. eigenvalues --   -0.96653  -0.95875  -0.92569  -0.91280  -0.86898
 Alpha  occ. eigenvalues --   -0.85377  -0.84241  -0.83902  -0.83769  -0.82620
 Alpha  occ. eigenvalues --   -0.82278  -0.79094  -0.76247  -0.74784  -0.73948
 Alpha  occ. eigenvalues --   -0.73890  -0.73552  -0.72863  -0.71013  -0.69663
 Alpha  occ. eigenvalues --   -0.67620  -0.66745  -0.66270  -0.66014  -0.64630
 Alpha  occ. eigenvalues --   -0.63924  -0.63531  -0.62846  -0.62649  -0.62124
 Alpha  occ. eigenvalues --   -0.60229  -0.59870  -0.59824  -0.59693  -0.59348
 Alpha  occ. eigenvalues --   -0.58892  -0.58712  -0.56880  -0.56496  -0.56340
 Alpha  occ. eigenvalues --   -0.56122  -0.55382  -0.55197  -0.54619  -0.54497
 Alpha  occ. eigenvalues --   -0.53806  -0.53556  -0.53106  -0.53027  -0.52597
 Alpha  occ. eigenvalues --   -0.52490  -0.52048  -0.51713  -0.50680  -0.50289
 Alpha  occ. eigenvalues --   -0.50151  -0.49595  -0.49283  -0.48989  -0.48683
 Alpha  occ. eigenvalues --   -0.48678  -0.48437  -0.48264  -0.48016  -0.47526
 Alpha  occ. eigenvalues --   -0.46911  -0.45704  -0.45024  -0.44246  -0.43279
 Alpha  occ. eigenvalues --   -0.41114  -0.39823  -0.39563  -0.37740  -0.37343
 Alpha  occ. eigenvalues --   -0.37135  -0.36968  -0.36691  -0.35750  -0.34442
 Alpha  occ. eigenvalues --   -0.33814  -0.33510  -0.33441  -0.33367  -0.33153
 Alpha  occ. eigenvalues --   -0.32770  -0.32476  -0.32192  -0.31910  -0.30824
 Alpha  occ. eigenvalues --   -0.30310  -0.29068  -0.25751  -0.25514
 Alpha virt. eigenvalues --    0.02807   0.04659   0.07599   0.07962   0.08385
 Alpha virt. eigenvalues --    0.09323   0.09431   0.10961   0.11412   0.12061
 Alpha virt. eigenvalues --    0.12611   0.14032   0.14260   0.14690   0.14917

 Mulliken charges:
               1
     1  N   -0.311487
     2  C    0.181137
     3  C    0.033431
     4  N   -0.259457
     5  C    0.133917
     6  H    0.026399
     7  N   -0.292520
     8  C    0.136169
     9  H    0.007213
    10  N   -0.290871
    11  C    0.244976
    12  C    0.126667
    13  N   -0.056737
    14  H    0.109279
    15  H    0.089021
    16  H    0.025059
    17  H    0.034243
    18  H    0.026288
    19  N   -0.312053
    20  C    0.238000
    21  C    0.181640
    22  N   -0.108469
    23  H    0.116363
    24  H    0.114235
    25  N   -0.289372
    26  C    0.213989
    27  N   -0.116800
    28  H    0.113710
    29  C    0.144549
    30  O   -0.315799
    31  C    0.009077
    32  N   -0.221159
    33  C    0.128539
    34  H    0.030155
    35  H    0.028915
    36  H    0.027771
    37  H    0.024960
    38  H    0.063211
    39  H    0.058417
    40  H    0.074329
    41  H    0.032084
    42  C   -0.113056
    43  O   -0.266368
    44  C    0.165967
    45  H    0.135153
    46  N   -0.131081
    47  O   -0.347325
    48  C    0.357855
    49  H    0.048953
    50  C    0.169606
    51  C    0.043982
    52  N   -0.294421
    53  H    0.035519
    54  H    0.045849
    55  H    0.012387
    56  H    0.126940
    57  H    0.113438
    58  N   -0.067280
    59  C    0.091966
    60  C    0.218827
    61  N   -0.256162
    62  H    0.058614
    63  C    0.153893
    64  N   -0.298067
    65  H    0.031230
    66  C    0.130289
    67  N   -0.267249
    68  C    0.039833
    69  C    0.169538
    70  N   -0.307847
 Sum of Mulliken charges =  -0.00000

 Dipole moment (field-independent basis, Debye):
    X=              8.6737    Y=              5.1084    Z=              2.3552  Tot=             10.3381
 Quadrupole moment (field-independent basis, Debye-Ang):
   XX=           -153.4513   YY=           -214.2923   ZZ=           -252.1574
   XY=             -1.7385   XZ=              9.1298   YZ=             -8.7821

 Normal termination of Gaussian 16 at Thu Jan 25 20:26:44 2018.
