 Gaussian 16, Revision A.03,
 Gaussian 16:  EM64L-G16RevA.03 25-Dec-2016

 ---------------------------------------
 #p wb97xd/cc-pvdz sp scf=(maxcycles=20)
 ---------------------------------------

 ------------------
 Base pair stacking
 ------------------
 Symbolic Z-matrix:
 Charge =  0 Multiplicity = 1

                         Standard orientation:
 ---------------------------------------------------------------------
 Center     Atomic      Atomic             Coordinates (Angstroms)
 Number     Number       Type             X           Y           Z
 ---------------------------------------------------------------------
      1          7           0        4.246241   -2.322394   -1.895537
      2          6           0        5.635028   -1.998779   -2.275738
      3          6           0        2.080780   -2.205456   -1.528941
      4          7           0        2.472115   -3.478247   -1.139612
      5          6           0        3.761067   -3.497759   -1.376062
      6          1           0        4.412956   -4.351460   -1.188510
      7          7           0        0.786595   -0.286589   -1.982816
      8          6           0        1.919552    0.284370   -2.404703
      9          1           0        1.819794    1.309460   -2.758954
     10          7           0        3.151454   -0.218458   -2.454452
     11          6           0        3.163454   -1.481411   -1.997034
     12          6           0        0.831841   -1.558089   -1.528578
     13          7           0       -0.298055   -2.129750   -1.107007
     14          1           0       -0.311413   -3.069119   -0.762583
     15          1           0       -1.169221   -1.638830   -1.121091
     16          1           0        5.943896   -2.631933   -2.985595
     17          1           0        5.676528   -1.062857   -2.624225
     18          1           0        6.229661   -2.081556   -1.476016
     19          7           0        4.817030    3.030445    0.656411
     20          6           0        3.512736    2.656611    0.873456
     21          6           0        5.274836    4.405001    0.370561
     22          7           0        0.149659    3.484363    1.130985
     23          1           0       -0.713847    3.014496    1.312182
     24          1           0        0.104453    4.470640    0.970004
     25          7           0        2.438865    3.475600    0.862155
     26          6           0        1.316325    2.822447    1.104848
     27          7           0        1.248458    1.470692    1.340804
     28          1           0        0.346423    1.055777    1.517293
     29          6           0        2.340455    0.608646    1.357234
     30          8           0        2.170456   -0.596334    1.580505
     31          6           0        3.553498    1.295853    1.098112
     32          7           0        4.857165    0.824870    1.023603
     33          6           0        5.569999    1.886388    0.760432
     34          1           0        6.652911    1.890944    0.631788
     35          1           0        5.727683    4.428839   -0.520042
     36          1           0        4.487972    5.020618    0.359660
     37          1           0        5.916426    4.698396    1.078437
     38          1           0       -4.491578   -0.498954    1.688417
     39          1           0       -4.218177   -0.481151    3.428983
     40          1           0       -3.375047    0.670830    2.392925
     41          1           0       -2.033460   -4.598260    2.236088
     42          6           0       -1.848872   -3.524688    2.196122
     43          8           0        0.484015   -3.753155    1.832023
     44          6           0       -0.515635   -3.050976    1.981859
     45          1           0        0.534602   -1.304017    1.799019
     46          7           0       -0.392532   -1.676577    1.948462
     47          8           0       -1.188348    0.447850    2.051733
     48          6           0       -1.395883   -0.751971    2.096598
     49          1           0       -3.879750   -2.956120    2.509298
     50          6           0       -2.848374   -2.647363    2.344132
     51          6           0       -3.757143   -0.336731    2.463247
     52          7           0       -2.653029   -1.286399    2.299537
     53          1           0       -5.820195    4.044344   -2.507792
     54          1           0       -4.394424    4.082905   -1.715474
     55          1           0       -5.787209    4.331633   -0.901620
     56          1           0       -3.855414   -2.820779   -0.489059
     57          1           0       -5.480367   -2.304782   -0.547435
     58          7           0       -4.508869   -2.073324   -0.609342
     59          6           0       -4.103794   -0.823135   -0.841996
     60          6           0       -4.411244    1.500443   -1.252114
     61          7           0       -3.100119    1.782015   -1.330147
     62          1           0       -1.295339    0.820103   -1.195603
     63          6           0       -2.374474    0.680591   -1.147918
     64          7           0       -2.778295   -0.572463   -0.914782
     65          1           0       -7.593602    2.069273   -1.287244
     66          6           0       -6.600503    1.622966   -1.228094
     67          7           0       -6.366372    0.352827   -1.005292
     68          6           0       -4.982092    0.261542   -1.018012
     69          6           0       -5.357687    3.824422   -1.648890
     70          7           0       -5.462667    2.375839   -1.386978
 ---------------------------------------------------------------------

 SCF Done:  E(RwB97XD) =  -2048.74360041     A.U. after   15 cycles

 The electronic state is 1-A.
 Alpha  occ. eigenvalues --  -19.25390 -19.21533 -19.20672 -14.52441 -14.51999
 Alpha  occ. eigenvalues --  -14.49042 -14.49016 -14.47832 -14.47275 -14.46912
 Alpha  occ. eigenvalues --  -14.46718 -14.45401 -14.44891 -14.44650 -14.42661
 Alpha  occ. eigenvalues --  -14.42143 -14.41200 -14.40546 -14.40440 -14.40211
 Alpha  occ. eigenvalues --  -10.44991 -10.41334 -10.40434 -10.39617 -10.38309
 Alpha  occ. eigenvalues --  -10.37995 -10.37666 -10.37388 -10.36119 -10.35336
 Alpha  occ. eigenvalues --  -10.34638 -10.34542 -10.33806 -10.33617 -10.33222
 Alpha  occ. eigenvalues --  -10.32925 -10.32724 -10.32721 -10.31175 -10.30956
 Alpha  occ. eigenvalues --  -10.29880 -10.28299 -10.27993  -1.18933  -1.15245
 Alpha  occ. eigenvalues --   -1.13291  -1.12540  -1.10781  -1.10505  -1.09794
 Alpha  occ. eigenvalues --   -1.08888  -1.08635  -1.05291  -1.04847  -1.01957
 Alpha  occ. eigenvalues --   -1.01047  -1.00340  -0.99810  -0.98671  -0.97283
 Alpha  occ. eigenvalues --   -0.96815  -0.96196  -0.92544  -0.90811  -0.87785
 Alpha  occ. eigenvalues --   -0.85934  -0.84325  -0.83223  -0.83157  -0.82707
 Alpha  occ. eigenvalues --   -0.81536  -0.78540  -0.77320  -0.75112  -0.74776
 Alpha  occ. eigenvalues --   -0.73713  -0.72914  -0.72530  -0.70751  -0.70572
 Alpha  occ. eigenvalues --   -0.67483  -0.67160  -0.66178  -0.65933  -0.64532
 Alpha  occ. eigenvalues --   -0.64429  -0.63630  -0.62677  -0.62413  -0.61872
 Alpha  occ. eigenvalues --   -0.60819  -0.60436  -0.59864  -0.59516  -0.59253
 Alpha  occ. eigenvalues --   -0.59127  -0.58422  -0.56840  -0.56228  -0.55753
 Alpha  occ. eigenvalues --   -0.55471  -0.55338  -0.55253  -0.54753  -0.54211
 Alpha  occ. eigenvalues --   -0.53791  -0.53610  -0.53514  -0.53062  -0.52946
 Alpha  occ. eigenvalues --   -0.52648  -0.52035  -0.51046  -0.50310  -0.50163
 Alpha  occ. eigenvalues --   -0.50004  -0.49643  -0.49423  -0.49096  -0.48827
 Alpha  occ. eigenvalues --   -0.48470  -0.48184  -0.47961  -0.47789  -0.47230
 Alpha  occ. eigenvalues --   -0.46391  -0.45628  -0.45356  -0.44591  -0.43621
 Alpha  occ. eigenvalues --   -0.40876  -0.40820  -0.39088  -0.38037  -0.37807
 Alpha  occ. eigenvalues --   -0.37456  -0.37382  -0.36528  -0.35419  -0.35103
 Alpha  occ. eigenvalues --   -0.34690  -0.34114  -0.33045  -0.32980  -0.32915
 Alpha  occ. eigenvalues --   -0.32676  -0.32515  -0.31987  -0.31592  -0.30493
 Alpha  occ. eigenvalues --   -0.30326  -0.30024  -0.25902  -0.25278
 Alpha virt. eigenvalues --    0.03159   0.03936   0.06742   0.08361   0.08827
 Alpha virt. eigenvalues --    0.09176   0.09678   0.10457   0.11243   0.11331
 Alpha virt. eigenvalues --    0.13752   0.14347   0.14537   0.14890   0.15096

 Mulliken charges:
               1
     1  N   -0.312658
     2  C    0.184160
     3  C    0.058008
     4  N   -0.252800
     5  C    0.144405
     6  H    0.026913
     7  N   -0.297868
     8  C    0.130445
     9  H    0.010778
    10  N   -0.281445
    11  C    0.260533
    12  C    0.087249
    13  N   -0.070415
    14  H    0.112829
    15  H    0.082394
    16  H    0.019546
    17  H    0.032192
    18  H    0.032581
    19  N   -0.311361
    20  C    0.251155
    21  C    0.180872
    22  N   -0.123337
    23  H    0.119355
    24  H    0.117910
    25  N   -0.312544
    26  C    0.249157
    27  N   -0.147725
    28  H    0.120393
    29  C    0.191682
    30  O   -0.320617
    31  C   -0.010534
    32  N   -0.232060
    33  C    0.125886
    34  H    0.023525
    35  H    0.027661
    36  H    0.029852
    37  H    0.025281
    38  H    0.057451
    39  H    0.058166
    40  H    0.075429
    41  H    0.028506
    42  C   -0.114840
    43  O   -0.250006
    44  C    0.153500
    45  H    0.136763
    46  N   -0.121735
    47  O   -0.351931
    48  C    0.354499
    49  H    0.041005
    50  C    0.158465
    51  C    0.040232
    52  N   -0.279913
    53  H    0.034099
    54  H    0.041201
    55  H    0.029988
    56  H    0.116566
    57  H    0.119946
    58  N   -0.065893
    59  C    0.078183
    60  C    0.249697
    61  N   -0.274127
    62  H    0.034273
    63  C    0.179687
    64  N   -0.315281
    65  H    0.039321
    66  C    0.142967
    67  N   -0.262000
    68  C    0.027142
    69  C    0.180185
    70  N   -0.312942
 Sum of Mulliken charges =  -0.00000

 Dipole moment (field-independent basis, Debye):
    X=             -8.6661    Y=              6.2631    Z=              0.1389  Tot=             10.6933
 Quadrupole moment (field-independent basis, Debye-Ang):
   XX=           -173.9829   YY=           -210.4064   ZZ=           -248.0439
   XY=              6.9805   XZ=            -17.7292   YZ=              1.9923

 Normal termination of Gaussian 16 at Fri Jan 26 02:22:04 2018.
