 Gaussian 16, Revision A.03,
 Gaussian 16:  EM64L-G16RevA.03 25-Dec-2016

 ---------------------------------------
 #p wb97xd/cc-pvdz sp scf=(maxcycles=20)
 ---------------------------------------

 ------------------
 Base pair stacking
 ------------------
 Symbolic Z-matrix:
 Charge =  0 Multiplicity = 1

                         Standard orientation:
 ---------------------------------------------------------------------
 Center     Atomic      Atomic             Coordinates (Angstroms)
 Number     Number       Type             X           Y           Z
 ---------------------------------------------------------------------
      1          7           0       -6.893478   -1.603905    0.296436
      2          6           0       -8.270155   -1.147851    0.022942
      3          6           0       -4.734629   -1.653746    0.713801
      4          7           0       -5.149491   -2.976375    0.656604
      5          6           0       -6.433508   -2.893405    0.407439
      6          1           0       -7.099558   -3.749201    0.293717
      7          7           0       -3.407902    0.283576    0.936322
      8          6           0       -4.524916    0.982189    0.708750
      9          1           0       -4.405327    2.064754    0.713122
     10          7           0       -5.761665    0.546372    0.477661
     11          6           0       -5.798543   -0.796315    0.493735
     12          6           0       -3.478062   -1.065524    0.946086
     13          7           0       -2.364115   -1.764634    1.173067
     14          1           0       -2.369354   -2.765095    1.189337
     15          1           0       -1.486839   -1.312446    1.334516
     16          1           0       -8.881445   -1.478943    0.741896
     17          1           0       -8.293002   -0.148779    0.001286
     18          1           0       -8.572770   -1.505714   -0.860427
     19          7           0       -2.044200    2.890647   -1.722798
     20          6           0       -0.776552    2.431645   -1.457419
     21          6           0       -2.494342    4.289174   -1.573823
     22          7           0        2.484557    3.031246   -0.424259
     23          1           0        3.324727    2.506054   -0.291856
     24          1           0        2.524319    4.009823   -0.220466
     25          7           0        0.262447    3.175129   -1.019501
     26          6           0        1.354842    2.450260   -0.855644
     27          7           0        1.426363    1.100424   -1.101284
     28          1           0        2.303705    0.627353   -0.948205
     29          6           0        0.369948    0.315278   -1.552289
     30          8           0        0.540003   -0.895298   -1.742861
     31          6           0       -0.810438    1.080081   -1.732982
     32          7           0       -2.073933    0.698253   -2.162710
     33          6           0       -2.770328    1.802236   -2.140820
     34          1           0       -3.821544    1.878959   -2.420708
     35          1           0       -3.242802    4.331569   -0.912911
     36          1           0       -1.733094    4.849393   -1.249921
     37          1           0       -2.809578    4.635461   -2.456728
     38          1           0        6.760999   -1.251661    0.618506
     39          1           0        7.153746   -1.191160   -1.098103
     40          1           0        6.055388    0.001283   -0.403072
     41          1           0        4.446371   -5.165543   -0.953311
     42          6           0        4.323070   -4.082529   -0.943350
     43          8           0        2.012345   -4.156140   -1.474620
     44          6           0        3.035447   -3.521872   -1.218191
     45          1           0        2.096061   -1.709955   -1.369249
     46          7           0        2.989119   -2.142870   -1.180187
     47          8           0        3.888982   -0.076531   -0.901471
     48          6           0        4.027999   -1.286993   -0.912332
     49          1           0        6.354813   -3.649711   -0.463240
     50          6           0        5.355575   -3.273552   -0.678607
     51          6           0        6.376875   -1.028957   -0.365830
     52          7           0        5.237353   -1.903177   -0.657362
     53          1           0        3.192118    4.430522    2.323719
     54          1           0        2.128170    4.198813    1.108641
     55          1           0        3.731844    4.120402    0.815096
     56          1           0        1.064008   -2.675970    2.138336
     57          1           0        2.633800   -2.193809    2.600252
     58          7           0        1.738865   -1.943538    2.229214
     59          6           0        1.458837   -0.688540    1.871808
     60          6           0        1.935535    1.622797    1.568106
     61          7           0        0.725246    1.929829    1.072781
     62          1           0       -1.049667    1.006511    0.628057
     63          6           0       -0.046088    0.845801    1.019539
     64          7           0        0.232543   -0.412039    1.377021
     65          1           0        4.974227    2.126542    2.550343
     66          6           0        4.004259    1.701248    2.291048
     67          7           0        3.681552    0.439132    2.434599
     68          6           0        2.372369    0.375751    1.979900
     69          6           0        3.013187    3.921756    1.481614
     70          7           0        2.994990    2.474890    1.771839
 ---------------------------------------------------------------------

 SCF Done:  E(RwB97XD) =  -2048.59950323     A.U. after   15 cycles

 The electronic state is 1-A.
 Alpha  occ. eigenvalues --  -19.25887 -19.22003 -19.20415 -14.52487 -14.52145
 Alpha  occ. eigenvalues --  -14.49065 -14.48651 -14.47922 -14.47684 -14.45875
 Alpha  occ. eigenvalues --  -14.45460 -14.44900 -14.43556 -14.42726 -14.42616
 Alpha  occ. eigenvalues --  -14.41773 -14.41268 -14.41237 -14.40690 -14.40469
 Alpha  occ. eigenvalues --  -10.45527 -10.41241 -10.40130 -10.39330 -10.37985
 Alpha  occ. eigenvalues --  -10.37855 -10.37665 -10.36317 -10.35769 -10.35280
 Alpha  occ. eigenvalues --  -10.34656 -10.34424 -10.34273 -10.34214 -10.33695
 Alpha  occ. eigenvalues --  -10.33438 -10.33224 -10.32152 -10.31163 -10.31148
 Alpha  occ. eigenvalues --  -10.30872 -10.28893 -10.28063  -1.19471  -1.15685
 Alpha  occ. eigenvalues --   -1.13182  -1.13028  -1.11668  -1.10514  -1.09367
 Alpha  occ. eigenvalues --   -1.09169  -1.08731  -1.05314  -1.04100  -1.02756
 Alpha  occ. eigenvalues --   -1.02484  -1.00798  -0.99063  -0.98331  -0.97295
 Alpha  occ. eigenvalues --   -0.96487  -0.96391  -0.92972  -0.91103  -0.88270
 Alpha  occ. eigenvalues --   -0.86428  -0.84244  -0.83999  -0.83689  -0.82601
 Alpha  occ. eigenvalues --   -0.82500  -0.78928  -0.76780  -0.74782  -0.74337
 Alpha  occ. eigenvalues --   -0.74174  -0.73404  -0.73246  -0.71398  -0.70424
 Alpha  occ. eigenvalues --   -0.68043  -0.66960  -0.66649  -0.66534  -0.64893
 Alpha  occ. eigenvalues --   -0.64405  -0.63827  -0.63456  -0.63033  -0.62743
 Alpha  occ. eigenvalues --   -0.60766  -0.60454  -0.60185  -0.59836  -0.59536
 Alpha  occ. eigenvalues --   -0.59409  -0.58983  -0.57057  -0.56750  -0.56620
 Alpha  occ. eigenvalues --   -0.56031  -0.55742  -0.55707  -0.54457  -0.54101
 Alpha  occ. eigenvalues --   -0.53867  -0.53375  -0.53315  -0.52793  -0.52742
 Alpha  occ. eigenvalues --   -0.52454  -0.52030  -0.51632  -0.51020  -0.50496
 Alpha  occ. eigenvalues --   -0.50057  -0.49647  -0.49429  -0.49134  -0.48776
 Alpha  occ. eigenvalues --   -0.48540  -0.48309  -0.48136  -0.47848  -0.47272
 Alpha  occ. eigenvalues --   -0.47260  -0.45718  -0.45386  -0.44033  -0.42405
 Alpha  occ. eigenvalues --   -0.41518  -0.39603  -0.39311  -0.38371  -0.37513
 Alpha  occ. eigenvalues --   -0.37074  -0.36959  -0.36275  -0.35522  -0.34683
 Alpha  occ. eigenvalues --   -0.33898  -0.33791  -0.33258  -0.33144  -0.33051
 Alpha  occ. eigenvalues --   -0.32506  -0.32033  -0.31905  -0.31714  -0.31171
 Alpha  occ. eigenvalues --   -0.30691  -0.29038  -0.26145  -0.24434
 Alpha virt. eigenvalues --    0.03033   0.03645   0.07025   0.07583   0.08341
 Alpha virt. eigenvalues --    0.09340   0.09810   0.10547   0.11302   0.12451
 Alpha virt. eigenvalues --    0.13009   0.13882   0.13942   0.14567   0.15075

 Mulliken charges:
               1
     1  N   -0.311675
     2  C    0.181092
     3  C    0.032019
     4  N   -0.260361
     5  C    0.134957
     6  H    0.027658
     7  N   -0.289253
     8  C    0.134374
     9  H    0.006825
    10  N   -0.288170
    11  C    0.246051
    12  C    0.126262
    13  N   -0.059710
    14  H    0.107452
    15  H    0.088210
    16  H    0.025577
    17  H    0.034960
    18  H    0.027270
    19  N   -0.310801
    20  C    0.220920
    21  C    0.182025
    22  N   -0.092655
    23  H    0.115741
    24  H    0.104164
    25  N   -0.251295
    26  C    0.142704
    27  N   -0.093777
    28  H    0.116396
    29  C    0.133048
    30  O   -0.317650
    31  C    0.002946
    32  N   -0.218017
    33  C    0.125486
    34  H    0.030923
    35  H    0.027189
    36  H    0.026453
    37  H    0.024845
    38  H    0.061464
    39  H    0.058702
    40  H    0.073482
    41  H    0.032004
    42  C   -0.112788
    43  O   -0.263999
    44  C    0.176563
    45  H    0.134935
    46  N   -0.139562
    47  O   -0.346319
    48  C    0.361160
    49  H    0.047879
    50  C    0.169995
    51  C    0.044434
    52  N   -0.297440
    53  H    0.013676
    54  H    0.031958
    55  H   -0.008129
    56  H    0.123007
    57  H    0.115651
    58  N   -0.068626
    59  C    0.103377
    60  C    0.204776
    61  N   -0.252631
    62  H    0.074999
    63  C    0.155408
    64  N   -0.294701
    65  H    0.031861
    66  C    0.123941
    67  N   -0.264295
    68  C    0.047107
    69  C    0.248309
    70  N   -0.318383
 Sum of Mulliken charges =  -0.00000

 Dipole moment (field-independent basis, Debye):
    X=              8.0027    Y=              4.8676    Z=              3.7320  Tot=             10.0828
 Quadrupole moment (field-independent basis, Debye-Ang):
   XX=           -151.3971   YY=           -216.9754   ZZ=           -254.0720
   XY=              0.0918   XZ=             11.4532   YZ=            -11.9827

 Normal termination of Gaussian 16 at Fri Jan 26 06:03:18 2018.
