 Gaussian 16, Revision A.03,
 Gaussian 16:  EM64L-G16RevA.03 25-Dec-2016

 ---------------------------------------
 #p wb97xd/cc-pvdz sp scf=(maxcycles=20)
 ---------------------------------------

 ------------------
 Base pair stacking
 ------------------
 Symbolic Z-matrix:
 Charge =  0 Multiplicity = 1

                         Standard orientation:
 ---------------------------------------------------------------------
 Center     Atomic      Atomic             Coordinates (Angstroms)
 Number     Number       Type             X           Y           Z
 ---------------------------------------------------------------------
      1          7           0        4.601923   -2.375554   -1.717078
      2          6           0        5.985594   -2.080373   -2.137013
      3          6           0        2.433328   -2.251467   -1.371992
      4          7           0        2.847631   -3.450645   -0.810692
      5          6           0        4.137548   -3.477405   -1.041062
      6          1           0        4.805024   -4.284271   -0.737122
      7          7           0        1.104186   -0.438992   -2.087025
      8          6           0        2.227475    0.090397   -2.582549
      9          1           0        2.109324    1.054797   -3.074735
     10          7           0        3.468968   -0.390377   -2.561476
     11          6           0        3.503562   -1.577831   -1.934422
     12          6           0        1.172203   -1.634686   -1.461909
     13          7           0        0.051996   -2.164761   -0.966604
     14          1           0        0.055435   -3.047825   -0.496071
     15          1           0       -0.828381   -1.697536   -1.048945
     16          1           0        6.309063   -2.799111   -2.752611
     17          1           0        6.010359   -1.200729   -2.611079
     18          1           0        6.578856   -2.040609   -1.332991
     19          7           0        4.470131    3.187316    0.784631
     20          6           0        3.168781    2.800796    0.997067
     21          6           0        4.917822    4.569482    0.520249
     22          7           0       -0.199796    3.600345    1.271290
     23          1           0       -1.059729    3.121521    1.445875
     24          1           0       -0.252198    4.588723    1.126091
     25          7           0        2.089101    3.612177    0.999950
     26          6           0        0.971510    2.947258    1.233376
     27          7           0        0.913526    1.591479    1.447833
     28          1           0        0.014675    1.167385    1.618628
     29          6           0        2.011649    0.737079    1.449372
     30          8           0        1.850474   -0.472495    1.653590
     31          6           0        3.219473    1.436949    1.199959
     32          7           0        4.526363    0.976524    1.116582
     33          6           0        5.231335    2.047144    0.869614
     34          1           0        6.314039    2.061468    0.739930
     35          1           0        5.369452    4.610730   -0.370335
     36          1           0        4.126586    5.179564    0.519989
     37          1           0        5.558133    4.856125    1.232038
     38          1           0       -4.811948   -0.424310    1.770023
     39          1           0       -4.536666   -0.432294    3.510373
     40          1           0       -3.702949    0.742032    2.491916
     41          1           0       -2.324132   -4.514203    2.249720
     42          6           0       -2.147216   -3.438843    2.226662
     43          8           0        0.186803   -3.644849    1.856522
     44          6           0       -0.817633   -2.952293    2.018586
     45          1           0        0.219952   -1.195201    1.862513
     46          7           0       -0.704335   -1.576686    2.006969
     47          8           0       -1.515117    0.540096    2.144921
     48          6           0       -1.714058   -0.661734    2.170878
     49          1           0       -4.181718   -2.889813    2.550996
     50          6           0       -3.152755   -2.571130    2.389698
     51          6           0       -4.077791   -0.269219    2.546578
     52          7           0       -2.967147   -1.208273    2.366585
     53          1           0       -5.582573    3.648751   -3.209454
     54          1           0       -4.160629    3.823856   -2.428738
     55          1           0       -5.560820    4.155099   -1.658141
     56          1           0       -3.493636   -2.833315   -0.262487
     57          1           0       -5.127959   -2.362057   -0.392811
     58          7           0       -4.160871   -2.122429   -0.485160
     59          6           0       -3.779039   -0.908541   -0.887471
     60          6           0       -4.129551    1.329972   -1.614055
     61          7           0       -2.823800    1.623622   -1.728979
     62          1           0       -1.001389    0.724772   -1.461611
     63          6           0       -2.077804    0.572151   -1.396110
     64          7           0       -2.458340   -0.644493   -0.992933
     65          1           0       -7.322082    1.826407   -1.730009
     66          6           0       -6.320818    1.411937   -1.609064
     67          7           0       -6.063170    0.189401   -1.213209
     68          6           0       -4.677350    0.124241   -1.212006
     69          6           0       -5.118986    3.558266   -2.328035
     70          7           0       -5.197088    2.157794   -1.869156
 ---------------------------------------------------------------------

 SCF Done:  E(RwB97XD) =  -2048.74245649     A.U. after   15 cycles

 The electronic state is 1-A.
 Alpha  occ. eigenvalues --  -19.25728 -19.22088 -19.20740 -14.52434 -14.52317
 Alpha  occ. eigenvalues --  -14.49068 -14.48702 -14.47721 -14.47639 -14.47064
 Alpha  occ. eigenvalues --  -14.46878 -14.45322 -14.44646 -14.44410 -14.42237
 Alpha  occ. eigenvalues --  -14.41947 -14.41174 -14.40186 -14.40184 -14.39773
 Alpha  occ. eigenvalues --  -10.45407 -10.41456 -10.40196 -10.40185 -10.38390
 Alpha  occ. eigenvalues --  -10.38190 -10.37905 -10.37203 -10.35856 -10.35026
 Alpha  occ. eigenvalues --  -10.34879 -10.34600 -10.33687 -10.33604 -10.32977
 Alpha  occ. eigenvalues --  -10.32754 -10.32423 -10.32395 -10.31386 -10.31190
 Alpha  occ. eigenvalues --  -10.29890 -10.28351 -10.27634  -1.19314  -1.15108
 Alpha  occ. eigenvalues --   -1.13384  -1.13109  -1.10824  -1.10265  -1.09623
 Alpha  occ. eigenvalues --   -1.09264  -1.08749  -1.05065  -1.04414  -1.02415
 Alpha  occ. eigenvalues --   -1.00920  -0.99949  -0.99859  -0.98755  -0.97056
 Alpha  occ. eigenvalues --   -0.96855  -0.95939  -0.92114  -0.91303  -0.87611
 Alpha  occ. eigenvalues --   -0.85794  -0.84372  -0.83548  -0.82972  -0.82756
 Alpha  occ. eigenvalues --   -0.81362  -0.78992  -0.77132  -0.74913  -0.74852
 Alpha  occ. eigenvalues --   -0.73839  -0.73357  -0.72178  -0.70548  -0.70250
 Alpha  occ. eigenvalues --   -0.67596  -0.66986  -0.66584  -0.65588  -0.64628
 Alpha  occ. eigenvalues --   -0.64341  -0.63925  -0.62822  -0.62025  -0.61975
 Alpha  occ. eigenvalues --   -0.60692  -0.60247  -0.59868  -0.59650  -0.59328
 Alpha  occ. eigenvalues --   -0.59178  -0.58567  -0.56867  -0.56011  -0.55910
 Alpha  occ. eigenvalues --   -0.55260  -0.55224  -0.54983  -0.54564  -0.54334
 Alpha  occ. eigenvalues --   -0.53820  -0.53725  -0.53582  -0.53202  -0.53027
 Alpha  occ. eigenvalues --   -0.52785  -0.52412  -0.50868  -0.50375  -0.49980
 Alpha  occ. eigenvalues --   -0.49791  -0.49581  -0.49418  -0.49216  -0.48956
 Alpha  occ. eigenvalues --   -0.48519  -0.48267  -0.48092  -0.47957  -0.47425
 Alpha  occ. eigenvalues --   -0.46125  -0.45743  -0.45329  -0.44270  -0.43872
 Alpha  occ. eigenvalues --   -0.40664  -0.40463  -0.39375  -0.37799  -0.37614
 Alpha  occ. eigenvalues --   -0.37515  -0.37484  -0.36245  -0.35801  -0.34897
 Alpha  occ. eigenvalues --   -0.34463  -0.34209  -0.33264  -0.32871  -0.32731
 Alpha  occ. eigenvalues --   -0.32661  -0.32535  -0.32207  -0.32064  -0.30267
 Alpha  occ. eigenvalues --   -0.30062  -0.29703  -0.25765  -0.25064
 Alpha virt. eigenvalues --    0.02481   0.04322   0.06865   0.08409   0.08782
 Alpha virt. eigenvalues --    0.09122   0.09592   0.10612   0.11139   0.11737
 Alpha virt. eigenvalues --    0.13635   0.14331   0.14521   0.15009   0.15339

 Mulliken charges:
               1
     1  N   -0.312860
     2  C    0.183149
     3  C    0.053078
     4  N   -0.250647
     5  C    0.140925
     6  H    0.024941
     7  N   -0.302297
     8  C    0.134291
     9  H    0.008730
    10  N   -0.286588
    11  C    0.259036
    12  C    0.099018
    13  N   -0.070664
    14  H    0.113038
    15  H    0.082345
    16  H    0.020544
    17  H    0.031869
    18  H    0.029220
    19  N   -0.311330
    20  C    0.250301
    21  C    0.180755
    22  N   -0.123198
    23  H    0.117418
    24  H    0.118154
    25  N   -0.312035
    26  C    0.249851
    27  N   -0.151585
    28  H    0.120766
    29  C    0.198705
    30  O   -0.320457
    31  C   -0.014325
    32  N   -0.229123
    33  C    0.127570
    34  H    0.023986
    35  H    0.028139
    36  H    0.029659
    37  H    0.025348
    38  H    0.055617
    39  H    0.060057
    40  H    0.075416
    41  H    0.030431
    42  C   -0.117365
    43  O   -0.255713
    44  C    0.160916
    45  H    0.134817
    46  N   -0.121958
    47  O   -0.350332
    48  C    0.352722
    49  H    0.042860
    50  C    0.155091
    51  C    0.040360
    52  N   -0.277448
    53  H    0.033859
    54  H    0.042575
    55  H    0.028997
    56  H    0.115094
    57  H    0.117094
    58  N   -0.063312
    59  C    0.092482
    60  C    0.251014
    61  N   -0.272771
    62  H    0.037734
    63  C    0.178730
    64  N   -0.319514
    65  H    0.038551
    66  C    0.141549
    67  N   -0.265646
    68  C    0.025460
    69  C    0.179870
    70  N   -0.312963
 Sum of Mulliken charges =  -0.00000

 Dipole moment (field-independent basis, Debye):
    X=             -8.8381    Y=              6.3508    Z=              0.5418  Tot=             10.8967
 Quadrupole moment (field-independent basis, Debye-Ang):
   XX=           -171.1769   YY=           -210.8867   ZZ=           -246.6594
   XY=              5.6178   XZ=            -14.4026   YZ=             -1.2483

 Normal termination of Gaussian 16 at Fri Jan 26 11:41:02 2018.
