 Gaussian 16, Revision A.03,
 Gaussian 16:  EM64L-G16RevA.03 25-Dec-2016

 ---------------------------------------
 #p wb97xd/cc-pvdz sp scf=(maxcycles=20)
 ---------------------------------------

 ------------------
 Base pair stacking
 ------------------
 Symbolic Z-matrix:
 Charge =  0 Multiplicity = 1

                         Standard orientation:
 ---------------------------------------------------------------------
 Center     Atomic      Atomic             Coordinates (Angstroms)
 Number     Number       Type             X           Y           Z
 ---------------------------------------------------------------------
      1          7           0       -7.134504   -1.595464    0.153081
      2          6           0       -8.507376   -1.143461   -0.145110
      3          6           0       -4.982366   -1.639057    0.604454
      4          7           0       -5.394419   -2.962695    0.550235
      5          6           0       -6.674507   -2.883452    0.280478
      6          1           0       -7.337492   -3.741045    0.162485
      7          7           0       -3.661995    0.301804    0.833791
      8          6           0       -4.776298    0.997083    0.583822
      9          1           0       -4.658318    2.079829    0.582329
     10          7           0       -6.008686    0.557752    0.336581
     11          6           0       -6.043911   -0.784838    0.361673
     12          6           0       -3.730403   -1.047287    0.852105
     13          7           0       -2.619160   -1.743083    1.101447
     14          1           0       -2.623242   -2.743408    1.124776
     15          1           0       -1.745149   -1.288426    1.273333
     16          1           0       -9.129343   -1.470345    0.566559
     17          1           0       -8.531286   -0.144615   -0.174263
     18          1           0       -8.795651   -1.508079   -1.030516
     19          7           0       -1.775309    2.858017   -1.726714
     20          6           0       -0.511307    2.402841   -1.438300
     21          6           0       -2.229687    4.256886   -1.594786
     22          7           0        2.732410    3.014735   -0.358678
     23          1           0        3.571146    2.491785   -0.209424
     24          1           0        2.767609    3.994799   -0.161291
     25          7           0        0.519668    3.151012   -0.989547
     26          6           0        1.610389    2.428976   -0.803481
     27          7           0        1.687635    1.077535   -1.038319
     28          1           0        2.563143    0.606898   -0.868185
     29          6           0        0.639508    0.287593   -1.500130
     30          8           0        0.814211   -0.924051   -1.679369
     31          6           0       -0.538985    1.049298   -1.704689
     32          7           0       -1.795085    0.662501   -2.151352
     33          6           0       -2.493288    1.765554   -2.148228
     34          1           0       -3.540110    1.838687   -2.445033
     35          1           0       -2.988439    4.302854   -0.945958
     36          1           0       -1.474371    4.820552   -1.263050
     37          1           0       -2.531580    4.596393   -2.484958
     38          1           0        6.998057   -1.254141    0.781306
     39          1           0        7.417485   -1.205278   -0.929351
     40          1           0        6.306739   -0.009580   -0.260088
     41          1           0        4.713766   -5.182631   -0.798429
     42          6           0        4.588803   -4.099762   -0.798136
     43          8           0        2.286764   -4.180662   -1.364872
     44          6           0        3.304843   -3.543031   -1.097045
     45          1           0        2.365386   -1.733663   -1.275698
     46          7           0        3.255999   -2.163865   -1.069624
     47          8           0        4.148485   -0.094230   -0.791680
     48          6           0        4.289365   -1.304526   -0.791710
     49          1           0        6.612188   -3.660451   -0.289476
     50          6           0        5.615909   -3.287354   -0.523098
     51          6           0        6.629043   -1.039039   -0.210472
     52          7           0        5.495442   -1.917032   -0.513497
     53          1           0        2.909713    4.468548    2.294364
     54          1           0        1.865202    4.226572    1.064513
     55          1           0        3.473375    4.148494    0.796604
     56          1           0        0.794745   -2.642316    2.126601
     57          1           0        2.356454   -2.154483    2.609500
     58          7           0        1.467061   -1.908232    2.222759
     59          6           0        1.190899   -0.656237    1.852058
     60          6           0        1.669034    1.653597    1.539319
     61          7           0        0.466200    1.955256    1.022978
     62          1           0       -1.300250    1.026100    0.557215
     63          6           0       -0.302685    0.869707    0.965454
     64          7           0       -0.027909   -0.385123    1.336236
     65          1           0        4.691293    2.168938    2.565238
     66          6           0        3.726101    1.740336    2.293885
     67          7           0        3.402965    0.478787    2.441400
     68          6           0        2.101135    0.410182    1.966786
     69          6           0        2.744668    3.953521    1.453236
     70          7           0        2.723965    2.508724    1.753472
 ---------------------------------------------------------------------

 SCF Done:  E(RwB97XD) =  -2048.55044896     A.U. after   16 cycles

 The electronic state is 1-A.
 Alpha  occ. eigenvalues --  -19.25921 -19.22016 -19.20702 -14.52509 -14.51695
 Alpha  occ. eigenvalues --  -14.49182 -14.49022 -14.47960 -14.47133 -14.46503
 Alpha  occ. eigenvalues --  -14.45638 -14.44413 -14.42978 -14.42662 -14.42233
 Alpha  occ. eigenvalues --  -14.41896 -14.41832 -14.41350 -14.41012 -14.40579
 Alpha  occ. eigenvalues --  -10.45560 -10.41135 -10.40146 -10.38781 -10.38350
 Alpha  occ. eigenvalues --  -10.37852 -10.37032 -10.35942 -10.35874 -10.35356
 Alpha  occ. eigenvalues --  -10.34546 -10.34392 -10.34256 -10.34237 -10.33819
 Alpha  occ. eigenvalues --  -10.33654 -10.33556 -10.31565 -10.31237 -10.31158
 Alpha  occ. eigenvalues --  -10.31097 -10.29021 -10.28575  -1.19500  -1.15903
 Alpha  occ. eigenvalues --   -1.13252  -1.13045  -1.11790  -1.10837  -1.09604
 Alpha  occ. eigenvalues --   -1.09388  -1.08335  -1.05431  -1.03997  -1.03317
 Alpha  occ. eigenvalues --   -1.02557  -1.00892  -0.98820  -0.98701  -0.97395
 Alpha  occ. eigenvalues --   -0.96873  -0.95764  -0.93080  -0.91114  -0.88897
 Alpha  occ. eigenvalues --   -0.86049  -0.84360  -0.84261  -0.83746  -0.82753
 Alpha  occ. eigenvalues --   -0.82705  -0.78953  -0.76324  -0.75231  -0.74846
 Alpha  occ. eigenvalues --   -0.73958  -0.73439  -0.73355  -0.71512  -0.70247
 Alpha  occ. eigenvalues --   -0.68323  -0.66990  -0.66745  -0.66507  -0.65200
 Alpha  occ. eigenvalues --   -0.64604  -0.64072  -0.63576  -0.63137  -0.62947
 Alpha  occ. eigenvalues --   -0.60901  -0.60568  -0.60043  -0.59695  -0.59586
 Alpha  occ. eigenvalues --   -0.59384  -0.58745  -0.57010  -0.56741  -0.56704
 Alpha  occ. eigenvalues --   -0.56124  -0.55821  -0.55475  -0.54583  -0.54051
 Alpha  occ. eigenvalues --   -0.53761  -0.53434  -0.53259  -0.52998  -0.52517
 Alpha  occ. eigenvalues --   -0.52366  -0.52087  -0.51398  -0.51131  -0.50592
 Alpha  occ. eigenvalues --   -0.50305  -0.49529  -0.49510  -0.49028  -0.48887
 Alpha  occ. eigenvalues --   -0.48505  -0.48323  -0.47758  -0.47482  -0.47364
 Alpha  occ. eigenvalues --   -0.47112  -0.45562  -0.45514  -0.44046  -0.42232
 Alpha  occ. eigenvalues --   -0.41634  -0.40006  -0.39550  -0.38225  -0.37625
 Alpha  occ. eigenvalues --   -0.37442  -0.36712  -0.35985  -0.35589  -0.34636
 Alpha  occ. eigenvalues --   -0.33986  -0.33911  -0.33321  -0.33201  -0.32811
 Alpha  occ. eigenvalues --   -0.32110  -0.32043  -0.31991  -0.31672  -0.31331
 Alpha  occ. eigenvalues --   -0.30790  -0.28408  -0.26253  -0.24638
 Alpha virt. eigenvalues --    0.03068   0.04520   0.06866   0.07501   0.08350
 Alpha virt. eigenvalues --    0.08750   0.10448   0.10496   0.10968   0.12593
 Alpha virt. eigenvalues --    0.13260   0.13670   0.14055   0.14320   0.14982

 Mulliken charges:
               1
     1  N   -0.311346
     2  C    0.181036
     3  C    0.029932
     4  N   -0.260075
     5  C    0.134964
     6  H    0.028047
     7  N   -0.288378
     8  C    0.131389
     9  H    0.006960
    10  N   -0.287613
    11  C    0.244698
    12  C    0.124234
    13  N   -0.059039
    14  H    0.107205
    15  H    0.088481
    16  H    0.025923
    17  H    0.035413
    18  H    0.027196
    19  N   -0.308518
    20  C    0.232236
    21  C    0.182771
    22  N   -0.074538
    23  H    0.109009
    24  H    0.108291
    25  N   -0.232887
    26  C    0.115366
    27  N   -0.085438
    28  H    0.119112
    29  C    0.150430
    30  O   -0.318671
    31  C   -0.011171
    32  N   -0.214744
    33  C    0.129282
    34  H    0.031851
    35  H    0.029405
    36  H    0.026515
    37  H    0.025418
    38  H    0.061330
    39  H    0.059438
    40  H    0.073424
    41  H    0.032249
    42  C   -0.112187
    43  O   -0.264343
    44  C    0.178066
    45  H    0.134806
    46  N   -0.141544
    47  O   -0.348171
    48  C    0.363941
    49  H    0.048074
    50  C    0.170874
    51  C    0.043936
    52  N   -0.298708
    53  H   -0.001148
    54  H    0.024655
    55  H   -0.023203
    56  H    0.121040
    57  H    0.114595
    58  N   -0.068873
    59  C    0.104914
    60  C    0.206263
    61  N   -0.254573
    62  H    0.055188
    63  C    0.156197
    64  N   -0.296371
    65  H    0.028026
    66  C    0.106468
    67  N   -0.259380
    68  C    0.043516
    69  C    0.279833
    70  N   -0.311076
 Sum of Mulliken charges =  -0.00000

 Dipole moment (field-independent basis, Debye):
    X=              7.6935    Y=              4.9884    Z=              3.3132  Tot=              9.7494
 Quadrupole moment (field-independent basis, Debye-Ang):
   XX=           -149.3632   YY=           -217.2313   ZZ=           -253.8498
   XY=              1.3079   XZ=             13.3468   YZ=            -12.9384

 Normal termination of Gaussian 16 at Fri Jan 26 06:49:04 2018.
