 Gaussian 16, Revision A.03,
 Gaussian 16:  EM64L-G16RevA.03 25-Dec-2016

 ---------------------------------------
 #p wb97xd/cc-pvdz sp scf=(maxcycles=20)
 ---------------------------------------

 ------------------
 Base pair stacking
 ------------------
 Symbolic Z-matrix:
 Charge =  0 Multiplicity = 1

                         Standard orientation:
 ---------------------------------------------------------------------
 Center     Atomic      Atomic             Coordinates (Angstroms)
 Number     Number       Type             X           Y           Z
 ---------------------------------------------------------------------
      1          7           0        5.253019   -1.938298   -1.417163
      2          6           0        6.663441   -1.512053   -1.500958
      3          6           0        3.053853   -1.949254   -1.387654
      4          7           0        3.451191   -3.263599   -1.189293
      5          6           0        4.760202   -3.204389   -1.215009
      6          1           0        5.422172   -4.061875   -1.090685
      7          7           0        1.739655   -0.011321   -1.670924
      8          6           0        2.890294    0.659218   -1.789236
      9          1           0        2.789049    1.731094   -1.953822
     10          7           0        4.141337    0.206610   -1.735021
     11          6           0        4.153423   -1.120849   -1.529752
     12          6           0        1.785519   -1.345705   -1.465012
     13          7           0        0.637997   -2.016789   -1.346661
     14          1           0        0.624367   -3.005517   -1.193478
     15          1           0       -0.246698   -1.554397   -1.407024
     16          1           0        7.111756   -1.985782   -2.259094
     17          1           0        6.705650   -0.525209   -1.654199
     18          1           0        7.132630   -1.735359   -0.646558
     19          7           0        3.846131    3.068795    1.210844
     20          6           0        2.543481    2.631822    1.224960
     21          6           0        4.278338    4.456256    0.948440
     22          7           0       -0.851409    3.283397    0.890411
     23          1           0       -1.709348    2.773384    0.945797
     24          1           0       -0.916676    4.260044    0.684001
     25          7           0        1.448284    3.390416    1.003284
     26          6           0        0.333826    2.685385    1.084062
     27          7           0        0.292865    1.340268    1.360659
     28          1           0       -0.604884    0.882841    1.402814
     29          6           0        1.407134    0.539841    1.592131
     30          8           0        1.260615   -0.664754    1.833389
     31          6           0        2.611810    1.283253    1.508695
     32          7           0        3.930822    0.881678    1.669464
     33          6           0        4.625510    1.971327    1.484258
     34          1           0        5.713216    2.030589    1.535847
     35          1           0        4.871683    4.475901    0.144470
     36          1           0        3.475529    5.027507    0.782800
     37          1           0        4.777969    4.806809    1.739819
     38          1           0       -5.322937   -0.926263    0.837310
     39          1           0       -5.344839   -0.837416    2.596933
     40          1           0       -4.397305    0.324636    1.667861
     41          1           0       -2.795704   -4.866048    1.949883
     42          6           0       -2.659051   -3.785869    1.897041
     43          8           0       -0.289851   -3.898813    1.932218
     44          6           0       -1.333185   -3.247556    1.886355
     45          1           0       -0.352687   -1.452896    1.807929
     46          7           0       -1.272692   -1.870290    1.817562
     47          8           0       -2.176148    0.209958    1.701282
     48          6           0       -2.330126   -0.997295    1.760327
     49          1           0       -4.738747   -3.318738    1.847579
     50          6           0       -3.710387   -2.959861    1.842247
     51          6           0       -4.736708   -0.699413    1.715337
     52          7           0       -3.576233   -1.592444    1.774875
     53          1           0       -4.939580    4.173333   -2.418461
     54          1           0       -3.655902    4.091012   -1.414717
     55          1           0       -5.168277    4.140637   -0.802892
     56          1           0       -2.928102   -2.903589   -1.450595
     57          1           0       -4.551179   -2.426600   -1.670164
     58          7           0       -3.595982   -2.163493   -1.530170
     59          6           0       -3.230176   -0.882308   -1.453179
     60          6           0       -3.599902    1.468222   -1.458773
     61          7           0       -2.309913    1.792045   -1.270340
     62          1           0       -0.496272    0.867460   -1.032741
     63          6           0       -1.560596    0.694604   -1.186345
     64          7           0       -1.925098   -0.589450   -1.263223
     65          1           0       -6.766167    1.953843   -1.895933
     66          6           0       -5.770523    1.529350   -1.763852
     67          7           0       -5.503023    0.246400   -1.751523
     68          6           0       -4.130135    0.193720   -1.558844
     69          6           0       -4.602183    3.800701   -1.553994
     70          7           0       -4.665352    2.326734   -1.592103
 ---------------------------------------------------------------------

 SCF Done:  E(RwB97XD) =  -2048.74734630     A.U. after   15 cycles

 The electronic state is 1-A.
 Alpha  occ. eigenvalues --  -19.25457 -19.21717 -19.20366 -14.52683 -14.52183
 Alpha  occ. eigenvalues --  -14.48796 -14.48621 -14.48179 -14.47502 -14.46606
 Alpha  occ. eigenvalues --  -14.46019 -14.45664 -14.44640 -14.44626 -14.42374
 Alpha  occ. eigenvalues --  -14.41733 -14.40859 -14.40658 -14.40497 -14.40040
 Alpha  occ. eigenvalues --  -10.45147 -10.40886 -10.40333 -10.39847 -10.38222
 Alpha  occ. eigenvalues --  -10.37984 -10.37730 -10.37468 -10.36033 -10.35249
 Alpha  occ. eigenvalues --  -10.34782 -10.34185 -10.34119 -10.33565 -10.33126
 Alpha  occ. eigenvalues --  -10.32950 -10.32866 -10.32716 -10.31032 -10.30840
 Alpha  occ. eigenvalues --  -10.30390 -10.28092 -10.27853  -1.19109  -1.15425
 Alpha  occ. eigenvalues --   -1.12934  -1.12724  -1.10787  -1.10380  -1.09659
 Alpha  occ. eigenvalues --   -1.09065  -1.08234  -1.05231  -1.04747  -1.02155
 Alpha  occ. eigenvalues --   -1.01239  -1.00221  -0.99289  -0.98297  -0.97213
 Alpha  occ. eigenvalues --   -0.96477  -0.96396  -0.92437  -0.90911  -0.87890
 Alpha  occ. eigenvalues --   -0.86180  -0.83886  -0.83440  -0.83300  -0.82335
 Alpha  occ. eigenvalues --   -0.81845  -0.78680  -0.77334  -0.75180  -0.74373
 Alpha  occ. eigenvalues --   -0.73303  -0.73051  -0.72594  -0.70794  -0.70637
 Alpha  occ. eigenvalues --   -0.67219  -0.67014  -0.66270  -0.65999  -0.64614
 Alpha  occ. eigenvalues --   -0.64230  -0.63564  -0.62474  -0.62433  -0.61400
 Alpha  occ. eigenvalues --   -0.60849  -0.60470  -0.60235  -0.59567  -0.59390
 Alpha  occ. eigenvalues --   -0.59259  -0.57935  -0.56591  -0.56265  -0.55760
 Alpha  occ. eigenvalues --   -0.55739  -0.55610  -0.55278  -0.54562  -0.54092
 Alpha  occ. eigenvalues --   -0.54029  -0.53459  -0.53443  -0.53110  -0.52869
 Alpha  occ. eigenvalues --   -0.52695  -0.52123  -0.51329  -0.50302  -0.50132
 Alpha  occ. eigenvalues --   -0.49922  -0.49771  -0.49627  -0.49127  -0.48616
 Alpha  occ. eigenvalues --   -0.48596  -0.48113  -0.47913  -0.47427  -0.47098
 Alpha  occ. eigenvalues --   -0.46510  -0.45667  -0.45348  -0.44266  -0.43710
 Alpha  occ. eigenvalues --   -0.41073  -0.40803  -0.39132  -0.37993  -0.37880
 Alpha  occ. eigenvalues --   -0.37076  -0.37042  -0.36636  -0.35477  -0.35091
 Alpha  occ. eigenvalues --   -0.34758  -0.33417  -0.33169  -0.33118  -0.32838
 Alpha  occ. eigenvalues --   -0.32439  -0.32210  -0.31841  -0.31666  -0.30522
 Alpha  occ. eigenvalues --   -0.30400  -0.30106  -0.25503  -0.25114
 Alpha virt. eigenvalues --    0.02754   0.04162   0.06483   0.08376   0.08884
 Alpha virt. eigenvalues --    0.09399   0.10036   0.10297   0.11353   0.11427
 Alpha virt. eigenvalues --    0.12594   0.14180   0.14798   0.14861   0.15289

 Mulliken charges:
               1
     1  N   -0.313502
     2  C    0.182906
     3  C    0.047699
     4  N   -0.260386
     5  C    0.138714
     6  H    0.025835
     7  N   -0.298441
     8  C    0.137100
     9  H    0.011092
    10  N   -0.284003
    11  C    0.262169
    12  C    0.109495
    13  N   -0.063975
    14  H    0.110403
    15  H    0.080559
    16  H    0.022224
    17  H    0.031963
    18  H    0.028678
    19  N   -0.309849
    20  C    0.246378
    21  C    0.180603
    22  N   -0.097100
    23  H    0.110580
    24  H    0.112704
    25  N   -0.308887
    26  C    0.225614
    27  N   -0.146215
    28  H    0.120506
    29  C    0.192256
    30  O   -0.323568
    31  C   -0.017975
    32  N   -0.224075
    33  C    0.130650
    34  H    0.021224
    35  H    0.028385
    36  H    0.028358
    37  H    0.024045
    38  H    0.056441
    39  H    0.060196
    40  H    0.073956
    41  H    0.029762
    42  C   -0.116661
    43  O   -0.261488
    44  C    0.174810
    45  H    0.132569
    46  N   -0.126476
    47  O   -0.342843
    48  C    0.342074
    49  H    0.043995
    50  C    0.162552
    51  C    0.039914
    52  N   -0.281077
    53  H    0.036055
    54  H    0.036757
    55  H    0.030263
    56  H    0.118575
    57  H    0.116694
    58  N   -0.059087
    59  C    0.085666
    60  C    0.254190
    61  N   -0.278865
    62  H    0.046303
    63  C    0.165800
    64  N   -0.307794
    65  H    0.039273
    66  C    0.139054
    67  N   -0.264393
    68  C    0.026640
    69  C    0.179315
    70  N   -0.314333
 Sum of Mulliken charges =  -0.00000

 Dipole moment (field-independent basis, Debye):
    X=             -9.0715    Y=              5.5656    Z=             -1.8043  Tot=             10.7946
 Quadrupole moment (field-independent basis, Debye-Ang):
   XX=           -164.2541   YY=           -212.2689   ZZ=           -253.6222
   XY=              5.6214   XZ=             -8.8654   YZ=              6.6982

 Normal termination of Gaussian 16 at Fri Jan 26 15:35:52 2018.
