 Gaussian 16, Revision A.03,
 Gaussian 16:  EM64L-G16RevA.03 25-Dec-2016

 ---------------------------------------
 #p wb97xd/cc-pvdz sp scf=(maxcycles=20)
 ---------------------------------------

 ------------------
 Base pair stacking
 ------------------
 Symbolic Z-matrix:
 Charge =  0 Multiplicity = 1

                         Standard orientation:
 ---------------------------------------------------------------------
 Center     Atomic      Atomic             Coordinates (Angstroms)
 Number     Number       Type             X           Y           Z
 ---------------------------------------------------------------------
      1          7           0       -4.960110   -2.259385    1.538976
      2          6           0       -6.353517   -1.933695    1.900040
      3          6           0       -2.776988   -2.181739    1.283566
      4          7           0       -3.192601   -3.374802    0.710331
      5          6           0       -4.491218   -3.373828    0.887152
      6          1           0       -5.162210   -4.168204    0.559000
      7          7           0       -1.441106   -0.393654    2.045885
      8          6           0       -2.572660    0.161183    2.492335
      9          1           0       -2.454914    1.125298    2.985164
     10          7           0       -3.821963   -0.293967    2.421725
     11          6           0       -3.855310   -1.483461    1.798482
     12          6           0       -1.508094   -1.590687    1.423225
     13          7           0       -0.379641   -2.146145    0.976869
     14          1           0       -0.382007   -3.031207    0.510088
     15          1           0        0.506113   -1.696795    1.093772
     16          1           0       -6.717059   -2.642633    2.504534
     17          1           0       -6.379546   -1.051454    2.369187
     18          1           0       -6.912073   -1.885572    1.071963
     19          7           0       -4.117487    3.262342   -0.986626
     20          6           0       -2.816794    2.848021   -1.143419
     21          6           0       -4.546856    4.654699   -0.746495
     22          7           0        0.576148    3.576567   -1.280961
     23          1           0        1.432411    3.079265   -1.417864
     24          1           0        0.643076    4.564342   -1.137633
     25          7           0       -1.721268    3.636936   -1.104756
     26          6           0       -0.609055    2.947981   -1.289038
     27          7           0       -0.570492    1.590266   -1.495549
     28          1           0        0.325632    1.146898   -1.627259
     29          6           0       -1.685157    0.758712   -1.539201
     30          8           0       -1.540904   -0.454892   -1.731781
     31          6           0       -2.887434    1.484559   -1.342838
     32          7           0       -4.205954    1.051597   -1.311868
     33          6           0       -4.898095    2.137714   -1.098565
     34          1           0       -5.984698    2.175002   -1.013910
     35          1           0       -5.033969    4.709558    0.124436
     36          1           0       -3.743777    5.248329   -0.715854
     37          1           0       -5.151092    4.951072   -1.485334
     38          1           0        5.120202   -0.544761   -1.572215
     39          1           0        4.917002   -0.555446   -3.322429
     40          1           0        4.066522    0.640728   -2.344057
     41          1           0        2.569738   -4.584709   -2.138400
     42          6           0        2.414454   -3.505828   -2.126953
     43          8           0        0.063344   -3.661841   -1.853041
     44          6           0        1.087816   -2.990949   -1.976069
     45          1           0        0.081477   -1.212087   -1.870088
     46          7           0        1.002805   -1.613265   -1.974605
     47          8           0        1.862487    0.485656   -2.087218
     48          6           0        2.037267   -0.720146   -2.100159
     49          1           0        4.471616   -3.000476   -2.368868
     50          6           0        3.443723   -2.659844   -2.251604
     51          6           0        4.422165   -0.378305   -2.379120
     52          7           0        3.285717   -1.293354   -2.241602
     53          1           0        5.277167    3.560593    3.428262
     54          1           0        3.892676    3.761231    2.588604
     55          1           0        5.330121    4.059803    1.875379
     56          1           0        3.177383   -2.891108    0.422932
     57          1           0        4.814379   -2.453051    0.619014
     58          7           0        3.849497   -2.193076    0.670257
     59          6           0        3.476706   -0.969644    1.051583
     60          6           0        3.843401    1.264634    1.783210
     61          7           0        2.540407    1.585715    1.842752
     62          1           0        0.712298    0.723386    1.503662
     63          6           0        1.787091    0.548262    1.483430
     64          7           0        2.158559   -0.677894    1.101178
     65          1           0        7.038051    1.695627    2.029399
     66          6           0        6.034231    1.301339    1.868706
     67          7           0        5.767775    0.082486    1.467347
     68          6           0        4.382137    0.045933    1.408984
     69          6           0        4.848640    3.475448    2.528754
     70          7           0        4.916475    2.071468    2.079044
 ---------------------------------------------------------------------

 SCF Done:  E(RwB97XD) =  -2048.74299504     A.U. after   15 cycles

 The electronic state is 1-A.
 Alpha  occ. eigenvalues --  -19.25866 -19.22298 -19.20709 -14.52581 -14.52287
 Alpha  occ. eigenvalues --  -14.49004 -14.48475 -14.47902 -14.47695 -14.47070
 Alpha  occ. eigenvalues --  -14.46872 -14.45326 -14.44462 -14.44294 -14.42208
 Alpha  occ. eigenvalues --  -14.41684 -14.41081 -14.40262 -14.40105 -14.39639
 Alpha  occ. eigenvalues --  -10.45564 -10.41435 -10.40416 -10.40046 -10.38360
 Alpha  occ. eigenvalues --  -10.38350 -10.37888 -10.37124 -10.35721 -10.35155
 Alpha  occ. eigenvalues --  -10.34739 -10.34544 -10.33678 -10.33517 -10.33026
 Alpha  occ. eigenvalues --  -10.32667 -10.32406 -10.32328 -10.31501 -10.31138
 Alpha  occ. eigenvalues --  -10.30011 -10.28295 -10.27592  -1.19470  -1.15063
 Alpha  occ. eigenvalues --   -1.13360  -1.13296  -1.10771  -1.10296  -1.09620
 Alpha  occ. eigenvalues --   -1.09288  -1.08727  -1.04934  -1.04290  -1.02593
 Alpha  occ. eigenvalues --   -1.00880  -0.99935  -0.99707  -0.98721  -0.96926
 Alpha  occ. eigenvalues --   -0.96797  -0.95954  -0.91980  -0.91463  -0.87537
 Alpha  occ. eigenvalues --   -0.85755  -0.84318  -0.83693  -0.82984  -0.82707
 Alpha  occ. eigenvalues --   -0.81394  -0.79157  -0.77036  -0.74828  -0.74797
 Alpha  occ. eigenvalues --   -0.73828  -0.73513  -0.72108  -0.70459  -0.70192
 Alpha  occ. eigenvalues --   -0.67574  -0.66886  -0.66730  -0.65507  -0.64680
 Alpha  occ. eigenvalues --   -0.64266  -0.63972  -0.62826  -0.61949  -0.61918
 Alpha  occ. eigenvalues --   -0.60629  -0.60182  -0.59988  -0.59740  -0.59344
 Alpha  occ. eigenvalues --   -0.59119  -0.58555  -0.56814  -0.56094  -0.55851
 Alpha  occ. eigenvalues --   -0.55353  -0.55163  -0.54850  -0.54585  -0.54214
 Alpha  occ. eigenvalues --   -0.53848  -0.53735  -0.53505  -0.53278  -0.53148
 Alpha  occ. eigenvalues --   -0.52724  -0.52542  -0.50900  -0.50371  -0.49929
 Alpha  occ. eigenvalues --   -0.49763  -0.49647  -0.49389  -0.49192  -0.49010
 Alpha  occ. eigenvalues --   -0.48575  -0.48358  -0.48106  -0.47913  -0.47460
 Alpha  occ. eigenvalues --   -0.46109  -0.45775  -0.45429  -0.44141  -0.43887
 Alpha  occ. eigenvalues --   -0.40604  -0.40353  -0.39485  -0.37632  -0.37532
 Alpha  occ. eigenvalues --   -0.37464  -0.37454  -0.36235  -0.35951  -0.34793
 Alpha  occ. eigenvalues --   -0.34366  -0.34146  -0.33444  -0.32852  -0.32690
 Alpha  occ. eigenvalues --   -0.32653  -0.32507  -0.32372  -0.32024  -0.30133
 Alpha  occ. eigenvalues --   -0.30043  -0.29653  -0.25677  -0.24996
 Alpha virt. eigenvalues --    0.02182   0.04430   0.06913   0.08380   0.08880
 Alpha virt. eigenvalues --    0.09093   0.09617   0.10654   0.11117   0.11818
 Alpha virt. eigenvalues --    0.13440   0.14385   0.14601   0.14953   0.15309

 Mulliken charges:
               1
     1  N   -0.312973
     2  C    0.182624
     3  C    0.049898
     4  N   -0.253199
     5  C    0.139089
     6  H    0.024400
     7  N   -0.302753
     8  C    0.135925
     9  H    0.008143
    10  N   -0.288676
    11  C    0.258641
    12  C    0.105173
    13  N   -0.068307
    14  H    0.113834
    15  H    0.082723
    16  H    0.021372
    17  H    0.031945
    18  H    0.027569
    19  N   -0.311496
    20  C    0.249970
    21  C    0.180731
    22  N   -0.122283
    23  H    0.116160
    24  H    0.117709
    25  N   -0.311764
    26  C    0.249123
    27  N   -0.152396
    28  H    0.120843
    29  C    0.200235
    30  O   -0.320720
    31  C   -0.015302
    32  N   -0.227269
    33  C    0.128978
    34  H    0.024011
    35  H    0.028369
    36  H    0.029363
    37  H    0.025176
    38  H    0.056951
    39  H    0.060700
    40  H    0.075413
    41  H    0.031352
    42  C   -0.123300
    43  O   -0.261415
    44  C    0.170311
    45  H    0.133198
    46  N   -0.122010
    47  O   -0.347532
    48  C    0.346989
    49  H    0.044680
    50  C    0.155271
    51  C    0.039126
    52  N   -0.274088
    53  H    0.033911
    54  H    0.042783
    55  H    0.028364
    56  H    0.115067
    57  H    0.114793
    58  N   -0.058725
    59  C    0.095673
    60  C    0.250906
    61  N   -0.272943
    62  H    0.038375
    63  C    0.177363
    64  N   -0.319019
    65  H    0.038080
    66  C    0.140268
    67  N   -0.268486
    68  C    0.026399
    69  C    0.179717
    70  N   -0.313037
 Sum of Mulliken charges =  -0.00000

 Dipole moment (field-independent basis, Debye):
    X=              9.0897    Y=              6.1627    Z=             -0.2422  Tot=             10.9845
 Quadrupole moment (field-independent basis, Debye-Ang):
   XX=           -168.1076   YY=           -211.1606   ZZ=           -247.7431
   XY=             -5.5569   XZ=            -11.2442   YZ=              1.0518

 Normal termination of Gaussian 16 at Fri Jan 26 10:54:41 2018.
