 Gaussian 16, Revision A.03,
 Gaussian 16:  EM64L-G16RevA.03 25-Dec-2016

 ---------------------------------------
 #p wb97xd/cc-pvdz sp scf=(maxcycles=20)
 ---------------------------------------

 ------------------
 Base pair stacking
 ------------------
 Symbolic Z-matrix:
 Charge =  0 Multiplicity = 1

                         Standard orientation:
 ---------------------------------------------------------------------
 Center     Atomic      Atomic             Coordinates (Angstroms)
 Number     Number       Type             X           Y           Z
 ---------------------------------------------------------------------
      1          7           0       -5.284408   -2.039198    1.392689
      2          6           0       -6.690183   -1.643189    1.604784
      3          6           0       -3.087858   -2.032615    1.281104
      4          7           0       -3.494074   -3.290537    0.859960
      5          6           0       -4.801157   -3.244152    0.944042
      6          1           0       -5.468456   -4.067942    0.689044
      7          7           0       -1.761429   -0.172236    1.866338
      8          6           0       -2.905974    0.459023    2.147587
      9          1           0       -2.797230    1.483156    2.501977
     10          7           0       -4.158784    0.017215    2.057238
     11          6           0       -4.180281   -1.250234    1.612787
     12          6           0       -1.816704   -1.446555    1.421219
     13          7           0       -0.675276   -2.078373    1.139933
     14          1           0       -0.668680   -3.022226    0.807793
     15          1           0        0.211684   -1.630045    1.251544
     16          1           0       -7.110776   -2.250188    2.279199
     17          1           0       -6.725328   -0.701355    1.937704
     18          1           0       -7.190981   -1.708761    0.741711
     19          7           0       -3.795564    3.202078   -1.229160
     20          6           0       -2.495104    2.762404   -1.288695
     21          6           0       -4.214532    4.601224   -1.011085
     22          7           0        0.912087    3.422478   -1.158042
     23          1           0        1.766345    2.908751   -1.232719
     24          1           0        0.987300    4.407661   -1.001637
     25          7           0       -1.390426    3.528503   -1.159006
     26          6           0       -0.281174    2.818282   -1.262801
     27          7           0       -0.253683    1.461519   -1.477192
     28          1           0        0.640974    1.000875   -1.543158
     29          6           0       -1.377902    0.653209   -1.613692
     30          8           0       -1.243270   -0.561727   -1.804831
     31          6           0       -2.577137    1.402063   -1.504490
     32          7           0       -3.902423    0.995907   -1.578936
     33          6           0       -4.587319    2.094422   -1.410462
     34          1           0       -5.676264    2.153288   -1.409532
     35          1           0       -4.766285    4.659993   -0.179874
     36          1           0       -3.404612    5.178115   -0.913603
     37          1           0       -4.753877    4.914950   -1.791794
     38          1           0        5.382503   -0.788623   -1.132884
     39          1           0        5.314972   -0.783076   -2.893579
     40          1           0        4.415305    0.423416   -1.973623
     41          1           0        2.803866   -4.771674   -1.928181
     42          6           0        2.669563   -3.689956   -1.919620
     43          8           0        0.301681   -3.799844   -1.829137
     44          6           0        1.345698   -3.149160   -1.867134
     45          1           0        0.369617   -1.350909   -1.824032
     46          7           0        1.288138   -1.770070   -1.860579
     47          8           0        2.195375    0.311593   -1.888822
     48          6           0        2.346704   -0.897398   -1.898439
     49          1           0        4.748873   -3.225032   -1.997908
     50          6           0        3.721942   -2.864315   -1.957375
     51          6           0        4.752330   -0.602386   -1.989779
     52          7           0        3.590749   -1.494982   -1.948038
     53          1           0        4.946645    3.840939    3.122741
     54          1           0        3.626575    3.936890    2.168628
     55          1           0        5.115333    4.105961    1.521257
     56          1           0        2.891004   -2.949805    0.948874
     57          1           0        4.521748   -2.512294    1.192512
     58          7           0        3.562392   -2.233188    1.138196
     59          6           0        3.195746   -0.961580    1.310719
     60          6           0        3.568640    1.350138    1.733373
     61          7           0        2.273011    1.695976    1.654865
     62          1           0        0.450547    0.820713    1.318493
     63          6           0        1.519593    0.628431    1.398716
     64          7           0        1.884930   -0.645984    1.225592
     65          1           0        6.749588    1.764666    2.135791
     66          6           0        5.749155    1.366150    1.964732
     67          7           0        5.479627    0.105723    1.727343
     68          6           0        4.100474    0.081768    1.578718
     69          6           0        4.576962    3.631123    2.217584
     70          7           0        4.639482    2.175479    1.982629
 ---------------------------------------------------------------------

 SCF Done:  E(RwB97XD) =  -2048.74616467     A.U. after   15 cycles

 The electronic state is 1-A.
 Alpha  occ. eigenvalues --  -19.25753 -19.22110 -19.20577 -14.52439 -14.52401
 Alpha  occ. eigenvalues --  -14.48836 -14.48504 -14.47949 -14.47790 -14.46920
 Alpha  occ. eigenvalues --  -14.46637 -14.45446 -14.44415 -14.44350 -14.42032
 Alpha  occ. eigenvalues --  -14.41894 -14.40894 -14.40570 -14.40267 -14.39774
 Alpha  occ. eigenvalues --  -10.45431 -10.41242 -10.40230 -10.40058 -10.38213
 Alpha  occ. eigenvalues --  -10.38085 -10.37989 -10.37193 -10.35744 -10.35010
 Alpha  occ. eigenvalues --  -10.34913 -10.34365 -10.33845 -10.33339 -10.33298
 Alpha  occ. eigenvalues --  -10.32714 -10.32619 -10.32490 -10.31336 -10.31004
 Alpha  occ. eigenvalues --  -10.30245 -10.28116 -10.27811  -1.19360  -1.15158
 Alpha  occ. eigenvalues --   -1.13197  -1.13100  -1.10607  -1.10542  -1.09479
 Alpha  occ. eigenvalues --   -1.09269  -1.08548  -1.04951  -1.04450  -1.02458
 Alpha  occ. eigenvalues --   -1.00977  -0.99886  -0.99722  -0.98556  -0.96940
 Alpha  occ. eigenvalues --   -0.96628  -0.96202  -0.92137  -0.91242  -0.87609
 Alpha  occ. eigenvalues --   -0.85875  -0.84141  -0.83549  -0.83207  -0.82550
 Alpha  occ. eigenvalues --   -0.81620  -0.78984  -0.77076  -0.74866  -0.74634
 Alpha  occ. eigenvalues --   -0.73644  -0.73356  -0.72304  -0.70523  -0.70368
 Alpha  occ. eigenvalues --   -0.67383  -0.66916  -0.66567  -0.65701  -0.64521
 Alpha  occ. eigenvalues --   -0.64307  -0.63814  -0.62678  -0.62119  -0.61751
 Alpha  occ. eigenvalues --   -0.60614  -0.60216  -0.60063  -0.59602  -0.59371
 Alpha  occ. eigenvalues --   -0.59265  -0.58347  -0.56676  -0.56048  -0.55947
 Alpha  occ. eigenvalues --   -0.55593  -0.55286  -0.54935  -0.54498  -0.54216
 Alpha  occ. eigenvalues --   -0.53758  -0.53685  -0.53477  -0.53190  -0.52996
 Alpha  occ. eigenvalues --   -0.52786  -0.52386  -0.51116  -0.50226  -0.50049
 Alpha  occ. eigenvalues --   -0.49884  -0.49559  -0.49462  -0.49249  -0.48875
 Alpha  occ. eigenvalues --   -0.48398  -0.48318  -0.48193  -0.47725  -0.47334
 Alpha  occ. eigenvalues --   -0.46303  -0.45706  -0.45384  -0.44230  -0.43867
 Alpha  occ. eigenvalues --   -0.40705  -0.40517  -0.39371  -0.37701  -0.37588
 Alpha  occ. eigenvalues --   -0.37297  -0.37257  -0.36444  -0.35822  -0.34853
 Alpha  occ. eigenvalues --   -0.34433  -0.33894  -0.33272  -0.32870  -0.32800
 Alpha  occ. eigenvalues --   -0.32680  -0.32438  -0.32177  -0.31876  -0.30264
 Alpha  occ. eigenvalues --   -0.30154  -0.29839  -0.25511  -0.25140
 Alpha virt. eigenvalues --    0.02446   0.04290   0.06876   0.08485   0.08737
 Alpha virt. eigenvalues --    0.09223   0.09780   0.10550   0.11317   0.11636
 Alpha virt. eigenvalues --    0.12889   0.14451   0.14542   0.14956   0.15069

 Mulliken charges:
               1
     1  N   -0.313117
     2  C    0.182376
     3  C    0.047418
     4  N   -0.257087
     5  C    0.137985
     6  H    0.024914
     7  N   -0.300882
     8  C    0.137540
     9  H    0.008400
    10  N   -0.288443
    11  C    0.259380
    12  C    0.110475
    13  N   -0.063434
    14  H    0.113071
    15  H    0.081554
    16  H    0.022216
    17  H    0.032036
    18  H    0.027348
    19  N   -0.311770
    20  C    0.249489
    21  C    0.180726
    22  N   -0.115193
    23  H    0.113521
    24  H    0.115701
    25  N   -0.310831
    26  C    0.242910
    27  N   -0.149975
    28  H    0.121689
    29  C    0.196014
    30  O   -0.321698
    31  C   -0.014702
    32  N   -0.226175
    33  C    0.130618
    34  H    0.023346
    35  H    0.028528
    36  H    0.028886
    37  H    0.024691
    38  H    0.057882
    39  H    0.060336
    40  H    0.074474
    41  H    0.030484
    42  C   -0.120887
    43  O   -0.262391
    44  C    0.170210
    45  H    0.132254
    46  N   -0.121864
    47  O   -0.344701
    48  C    0.341056
    49  H    0.044707
    50  C    0.159746
    51  C    0.038940
    52  N   -0.276487
    53  H    0.034681
    54  H    0.041444
    55  H    0.028126
    56  H    0.118271
    57  H    0.114870
    58  N   -0.058138
    59  C    0.090779
    60  C    0.249590
    61  N   -0.272929
    62  H    0.039543
    63  C    0.170884
    64  N   -0.312165
    65  H    0.038144
    66  C    0.139388
    67  N   -0.268843
    68  C    0.029485
    69  C    0.179128
    70  N   -0.313541
 Sum of Mulliken charges =  -0.00000

 Dipole moment (field-independent basis, Debye):
    X=              9.1656    Y=              5.7965    Z=              0.7284  Tot=             10.8691
 Quadrupole moment (field-independent basis, Debye-Ang):
   XX=           -164.8736   YY=           -211.2989   ZZ=           -251.0358
   XY=             -5.6247   XZ=             -8.0168   YZ=             -2.6080

 Normal termination of Gaussian 16 at Fri Jan 26 00:07:12 2018.
