 Gaussian 16, Revision A.03,
 Gaussian 16:  EM64L-G16RevA.03 25-Dec-2016

 ---------------------------------------
 #p wb97xd/cc-pvdz sp scf=(maxcycles=20)
 ---------------------------------------

 ------------------
 Base pair stacking
 ------------------
 Symbolic Z-matrix:
 Charge =  0 Multiplicity = 1

                         Standard orientation:
 ---------------------------------------------------------------------
 Center     Atomic      Atomic             Coordinates (Angstroms)
 Number     Number       Type             X           Y           Z
 ---------------------------------------------------------------------
      1          7           0       -5.612578   -1.924931    1.180466
      2          6           0       -7.019853   -1.505842    1.328628
      3          6           0       -3.413436   -1.951680    1.160850
      4          7           0       -3.820629   -3.208924    0.738626
      5          6           0       -5.129234   -3.142485    0.767343
      6          1           0       -5.797645   -3.959735    0.494821
      7          7           0       -2.084698   -0.103325    1.778092
      8          6           0       -3.230352    0.548083    2.003376
      9          1           0       -3.121075    1.575035    2.349342
     10          7           0       -4.484813    0.123364    1.866124
     11          6           0       -4.506837   -1.149291    1.436836
     12          6           0       -2.140552   -1.382368    1.346809
     13          7           0       -0.998029   -2.034270    1.121365
     14          1           0       -0.991799   -2.982345    0.801465
     15          1           0       -0.109845   -1.597467    1.264465
     16          1           0       -7.477269   -2.097882    1.992285
     17          1           0       -7.054667   -0.559352    1.648138
     18          1           0       -7.485180   -1.575315    0.446224
     19          7           0       -3.441362    3.221012   -1.411124
     20          6           0       -2.146312    2.761771   -1.410741
     21          6           0       -3.847955    4.628800   -1.228059
     22          7           0        1.262018    3.373953   -1.145747
     23          1           0        2.110822    2.846956   -1.178246
     24          1           0        1.345462    4.359895   -0.998490
     25          7           0       -1.036598    3.513370   -1.244388
     26          6           0        0.065205    2.785836   -1.292889
     27          7           0        0.081191    1.426153   -1.489183
     28          1           0        0.970788    0.951755   -1.511954
     29          6           0       -1.048397    0.632547   -1.662637
     30          8           0       -0.924210   -0.586590   -1.832967
     31          6           0       -2.239739    1.400083   -1.612979
     32          7           0       -3.566732    1.012277   -1.737816
     33          6           0       -4.241449    2.122709   -1.611727
     34          1           0       -5.328478    2.197384   -1.657105
     35          1           0       -4.432921    4.706337   -0.421460
     36          1           0       -3.034214    5.195087   -1.103885
     37          1           0       -4.349518    4.940180   -2.034472
     38          1           0        5.663642   -0.900918   -0.881515
     39          1           0        5.669631   -0.917206   -2.643428
     40          1           0        4.750663    0.314038   -1.776894
     41          1           0        3.060753   -4.856088   -1.734843
     42          6           0        2.942500   -3.772514   -1.745259
     43          8           0        0.571529   -3.846836   -1.752625
     44          6           0        1.625884   -3.211923   -1.754913
     45          1           0        0.676019   -1.399285   -1.774898
     46          7           0        1.588856   -1.832174   -1.767790
     47          8           0        2.527697    0.235560   -1.783717
     48          6           0        2.661089   -0.975523   -1.772072
     49          1           0        5.030026   -3.338877   -1.742173
     50          6           0        4.007840   -2.962795   -1.749126
     51          6           0        5.072607   -0.716672   -1.766271
     52          7           0        3.896989   -1.591696   -1.762177
     53          1           0        4.624801    3.828002    3.264568
     54          1           0        3.347230    3.930736    2.254924
     55          1           0        4.864047    4.069765    1.668401
     56          1           0        2.559601   -2.959783    1.090521
     57          1           0        4.185174   -2.542880    1.396788
     58          7           0        3.233222   -2.250594    1.298923
     59          6           0        2.878876   -0.971679    1.440234
     60          6           0        3.268582    1.339666    1.849577
     61          7           0        1.982701    1.703228    1.712643
     62          1           0        0.162875    0.850228    1.311106
     63          6           0        1.224626    0.643502    1.438376
     64          7           0        1.577645   -0.638218    1.296434
     65          1           0        6.435864    1.713153    2.379647
     66          6           0        5.437547    1.327018    2.171793
     67          7           0        5.159212    0.067667    1.938900
     68          6           0        3.787246    0.061810    1.732974
     69          6           0        4.290044    3.611854    2.347388
     70          7           0        4.340392    2.152544    2.133236
 ---------------------------------------------------------------------

 SCF Done:  E(RwB97XD) =  -2048.74578909     A.U. after   15 cycles

 The electronic state is 1-A.
 Alpha  occ. eigenvalues --  -19.25903 -19.22262 -19.20617 -14.52538 -14.52304
 Alpha  occ. eigenvalues --  -14.48812 -14.48334 -14.48048 -14.47937 -14.46962
 Alpha  occ. eigenvalues --  -14.46675 -14.45374 -14.44197 -14.44147 -14.42045
 Alpha  occ. eigenvalues --  -14.41764 -14.40849 -14.40674 -14.40273 -14.39712
 Alpha  occ. eigenvalues --  -10.45551 -10.41246 -10.40358 -10.39865 -10.38229
 Alpha  occ. eigenvalues --  -10.38117 -10.37890 -10.37037 -10.35545 -10.35057
 Alpha  occ. eigenvalues --  -10.34864 -10.34346 -10.33805 -10.33384 -10.33301
 Alpha  occ. eigenvalues --  -10.32666 -10.32555 -10.32494 -10.31416 -10.30979
 Alpha  occ. eigenvalues --  -10.30364 -10.28105 -10.27845  -1.19493  -1.15045
 Alpha  occ. eigenvalues --   -1.13253  -1.13212  -1.10625  -1.10602  -1.09466
 Alpha  occ. eigenvalues --   -1.09198  -1.08568  -1.04779  -1.04414  -1.02593
 Alpha  occ. eigenvalues --   -1.00875  -0.99848  -0.99753  -0.98566  -0.96762
 Alpha  occ. eigenvalues --   -0.96612  -0.96257  -0.92094  -0.91308  -0.87480
 Alpha  occ. eigenvalues --   -0.85788  -0.84128  -0.83623  -0.83273  -0.82537
 Alpha  occ. eigenvalues --   -0.81686  -0.79074  -0.76932  -0.74727  -0.74610
 Alpha  occ. eigenvalues --   -0.73678  -0.73463  -0.72310  -0.70462  -0.70309
 Alpha  occ. eigenvalues --   -0.67401  -0.66773  -0.66649  -0.65708  -0.64563
 Alpha  occ. eigenvalues --   -0.64191  -0.63840  -0.62713  -0.62119  -0.61761
 Alpha  occ. eigenvalues --   -0.60487  -0.60101  -0.60079  -0.59662  -0.59375
 Alpha  occ. eigenvalues --   -0.59203  -0.58382  -0.56666  -0.56067  -0.56013
 Alpha  occ. eigenvalues --   -0.55709  -0.55205  -0.54881  -0.54543  -0.54289
 Alpha  occ. eigenvalues --   -0.53727  -0.53698  -0.53416  -0.53202  -0.53014
 Alpha  occ. eigenvalues --   -0.52658  -0.52449  -0.51180  -0.50239  -0.50081
 Alpha  occ. eigenvalues --   -0.49787  -0.49563  -0.49497  -0.49128  -0.48938
 Alpha  occ. eigenvalues --   -0.48405  -0.48326  -0.48249  -0.47728  -0.47393
 Alpha  occ. eigenvalues --   -0.46336  -0.45706  -0.45208  -0.44295  -0.43973
 Alpha  occ. eigenvalues --   -0.40585  -0.40492  -0.39483  -0.37626  -0.37465
 Alpha  occ. eigenvalues --   -0.37303  -0.37216  -0.36497  -0.35960  -0.34775
 Alpha  occ. eigenvalues --   -0.34287  -0.33821  -0.33373  -0.32897  -0.32840
 Alpha  occ. eigenvalues --   -0.32695  -0.32400  -0.32223  -0.31872  -0.30291
 Alpha  occ. eigenvalues --   -0.29995  -0.29831  -0.25601  -0.25003
 Alpha virt. eigenvalues --    0.02521   0.04220   0.07213   0.08261   0.08639
 Alpha virt. eigenvalues --    0.09258   0.09753   0.10654   0.11502   0.11660
 Alpha virt. eigenvalues --    0.12567   0.14309   0.14521   0.14996   0.15098

 Mulliken charges:
               1
     1  N   -0.312996
     2  C    0.181857
     3  C    0.044802
     4  N   -0.257799
     5  C    0.136137
     6  H    0.024726
     7  N   -0.299514
     8  C    0.139447
     9  H    0.007694
    10  N   -0.290442
    11  C    0.256405
    12  C    0.115123
    13  N   -0.059444
    14  H    0.112967
    15  H    0.081940
    16  H    0.022931
    17  H    0.032234
    18  H    0.026476
    19  N   -0.312055
    20  C    0.248438
    21  C    0.180796
    22  N   -0.112969
    23  H    0.113244
    24  H    0.114975
    25  N   -0.310052
    26  C    0.240252
    27  N   -0.149127
    28  H    0.122880
    29  C    0.190880
    30  O   -0.321305
    31  C   -0.010459
    32  N   -0.225643
    33  C    0.131395
    34  H    0.024270
    35  H    0.028760
    36  H    0.028635
    37  H    0.024655
    38  H    0.060358
    39  H    0.059655
    40  H    0.074148
    41  H    0.031076
    42  C   -0.117228
    43  O   -0.263101
    44  C    0.162842
    45  H    0.132524
    46  N   -0.118491
    47  O   -0.343482
    48  C    0.337820
    49  H    0.046096
    50  C    0.159219
    51  C    0.039852
    52  N   -0.277810
    53  H    0.034712
    54  H    0.041858
    55  H    0.026914
    56  H    0.122778
    57  H    0.114961
    58  N   -0.059612
    59  C    0.086446
    60  C    0.245437
    61  N   -0.270424
    62  H    0.041380
    63  C    0.165546
    64  N   -0.307208
    65  H    0.037092
    66  C    0.138593
    67  N   -0.270565
    68  C    0.033594
    69  C    0.178399
    70  N   -0.313499
 Sum of Mulliken charges =  -0.00000

 Dipole moment (field-independent basis, Debye):
    X=              9.2348    Y=              5.6281    Z=              1.0097  Tot=             10.8617
 Quadrupole moment (field-independent basis, Debye-Ang):
   XX=           -162.4039   YY=           -211.6002   ZZ=           -251.5211
   XY=             -5.3250   XZ=             -4.0444   YZ=             -3.3464

 Normal termination of Gaussian 16 at Thu Jan 25 23:21:33 2018.
