 Gaussian 16, Revision A.03,
 Gaussian 16:  EM64L-G16RevA.03 25-Dec-2016

 ---------------------------------------
 #p wb97xd/cc-pvdz sp scf=(maxcycles=20)
 ---------------------------------------

 ------------------
 Base pair stacking
 ------------------
 Symbolic Z-matrix:
 Charge =  0 Multiplicity = 1

                         Standard orientation:
 ---------------------------------------------------------------------
 Center     Atomic      Atomic             Coordinates (Angstroms)
 Number     Number       Type             X           Y           Z
 ---------------------------------------------------------------------
      1          7           0        4.919011   -1.923106   -1.561930
      2          6           0        6.334523   -1.505598   -1.568251
      3          6           0        2.719719   -1.912774   -1.543883
      4          7           0        3.101395   -3.246439   -1.563662
      5          6           0        4.411111   -3.199282   -1.573747
      6          1           0        5.062863   -4.073297   -1.589974
      7          7           0        1.428628    0.060750   -1.508706
      8          6           0        2.587260    0.727960   -1.509814
      9          1           0        2.498786    1.813423   -1.495525
     10          7           0        3.832904    0.257847   -1.525835
     11          6           0        3.829171   -1.085333   -1.542588
     12          6           0        1.458584   -1.289768   -1.525826
     13          7           0        0.303064   -1.957564   -1.524758
     14          1           0        0.277655   -2.957772   -1.537053
     15          1           0       -0.576117   -1.481108   -1.511640
     16          1           0        6.782222   -1.852920   -2.392324
     17          1           0        6.388484   -0.507566   -1.556219
     18          1           0        6.796008   -1.872436   -0.760500
     19          7           0        4.195949    2.947803    0.988904
     20          6           0        2.889823    2.521577    1.009936
     21          6           0        4.643327    4.311915    0.642877
     22          7           0       -0.493901    3.172728    0.576205
     23          1           0       -1.356638    2.673341    0.650686
     24          1           0       -0.548074    4.134038    0.304771
     25          7           0        1.804424    3.271317    0.720361
     26          6           0        0.683262    2.580767    0.828737
     27          7           0        0.627158    1.257175    1.192701
     28          1           0       -0.274743    0.809652    1.249847
     29          6           0        1.731151    0.466216    1.495129
     30          8           0        1.571212   -0.718786    1.812791
     31          6           0        2.942873    1.194279    1.383085
     32          7           0        4.255873    0.795233    1.592107
     33          6           0        4.962079    1.865506    1.347144
     34          1           0        6.049231    1.920639    1.412974
     35          1           0        5.249830    4.274365   -0.150559
     36          1           0        3.847860    4.876430    0.426476
     37          1           0        5.132743    4.710578    1.417699
     38          1           0       -4.997094   -1.000702    0.725743
     39          1           0       -5.046965   -0.795658    2.475063
     40          1           0       -4.075266    0.296007    1.487413
     41          1           0       -2.519538   -4.875484    2.137960
     42          6           0       -2.373511   -3.802121    2.016303
     43          8           0       -0.006163   -3.928618    2.098617
     44          6           0       -1.043429   -3.274724    1.992400
     45          1           0       -0.047636   -1.495883    1.812280
     46          7           0       -0.970949   -1.905462    1.833964
     47          8           0       -1.855924    0.168668    1.565615
     48          6           0       -2.020377   -1.030978    1.701547
     49          1           0       -4.448372   -3.325127    1.901229
     50          6           0       -3.417258   -2.974400    1.889522
     51          6           0       -4.423474   -0.720336    1.596615
     52          7           0       -3.271222   -1.615364    1.734388
     53          1           0       -5.199598    4.390122   -1.582890
     54          1           0       -3.923045    4.128033   -0.601143
     55          1           0       -5.438495    4.093848    0.004108
     56          1           0       -3.271849   -2.772765   -1.788724
     57          1           0       -4.888220   -2.246912   -1.933323
     58          7           0       -3.931068   -2.021838   -1.747785
     59          6           0       -3.551702   -0.775377   -1.458702
     60          6           0       -3.895568    1.548035   -1.077554
     61          7           0       -2.603283    1.821008   -0.832800
     62          1           0       -0.801375    0.848495   -0.743551
     63          6           0       -1.866570    0.715974   -0.928074
     64          7           0       -2.244669   -0.533365   -1.217500
     65          1           0       -7.053589    2.136587   -1.441804
     66          6           0       -6.063480    1.684360   -1.377463
     67          7           0       -5.810169    0.413914   -1.576078
     68          6           0       -4.439133    0.313906   -1.388976
     69          6           0       -4.871590    3.875905   -0.790430
     70          7           0       -4.950691    2.429321   -1.071739
 ---------------------------------------------------------------------

 SCF Done:  E(RwB97XD) =  -2048.73977484     A.U. after   15 cycles

 The electronic state is 1-A.
 Alpha  occ. eigenvalues --  -19.25193 -19.21415 -19.20231 -14.52938 -14.52022
 Alpha  occ. eigenvalues --  -14.49286 -14.48488 -14.48250 -14.47298 -14.46264
 Alpha  occ. eigenvalues --  -14.45844 -14.45298 -14.45102 -14.44999 -14.42902
 Alpha  occ. eigenvalues --  -14.41540 -14.41017 -14.40527 -14.40505 -14.40205
 Alpha  occ. eigenvalues --  -10.44905 -10.40767 -10.40589 -10.39553 -10.38401
 Alpha  occ. eigenvalues --  -10.37831 -10.37794 -10.37468 -10.36700 -10.35542
 Alpha  occ. eigenvalues --  -10.34602 -10.34371 -10.33931 -10.33701 -10.33198
 Alpha  occ. eigenvalues --  -10.33041 -10.32994 -10.32742 -10.30800 -10.30746
 Alpha  occ. eigenvalues --  -10.30329 -10.28262 -10.27639  -1.18993  -1.15695
 Alpha  occ. eigenvalues --   -1.12741  -1.12452  -1.10893  -1.10227  -1.10094
 Alpha  occ. eigenvalues --   -1.08899  -1.07982  -1.05702  -1.05014  -1.01937
 Alpha  occ. eigenvalues --   -1.01486  -1.00520  -0.98899  -0.98109  -0.97652
 Alpha  occ. eigenvalues --   -0.96630  -0.96242  -0.92683  -0.90693  -0.88257
 Alpha  occ. eigenvalues --   -0.86435  -0.83771  -0.83515  -0.83161  -0.82207
 Alpha  occ. eigenvalues --   -0.81914  -0.78471  -0.77698  -0.75662  -0.74217
 Alpha  occ. eigenvalues --   -0.73022  -0.72835  -0.72821  -0.71154  -0.70853
 Alpha  occ. eigenvalues --   -0.67671  -0.66719  -0.66229  -0.66061  -0.64969
 Alpha  occ. eigenvalues --   -0.64080  -0.63424  -0.62685  -0.62455  -0.61185
 Alpha  occ. eigenvalues --   -0.61026  -0.60822  -0.60505  -0.59894  -0.59369
 Alpha  occ. eigenvalues --   -0.59083  -0.57609  -0.56857  -0.56223  -0.55878
 Alpha  occ. eigenvalues --   -0.55745  -0.55736  -0.55605  -0.54826  -0.54311
 Alpha  occ. eigenvalues --   -0.53808  -0.53636  -0.53271  -0.53190  -0.52740
 Alpha  occ. eigenvalues --   -0.52541  -0.51959  -0.51403  -0.50608  -0.50270
 Alpha  occ. eigenvalues --   -0.50001  -0.49794  -0.49723  -0.48945  -0.48832
 Alpha  occ. eigenvalues --   -0.48425  -0.47973  -0.47904  -0.47258  -0.46934
 Alpha  occ. eigenvalues --   -0.46632  -0.45691  -0.45200  -0.44054  -0.43533
 Alpha  occ. eigenvalues --   -0.41547  -0.41007  -0.38944  -0.38345  -0.38238
 Alpha  occ. eigenvalues --   -0.37497  -0.36901  -0.36274  -0.35606  -0.35224
 Alpha  occ. eigenvalues --   -0.34935  -0.33711  -0.33336  -0.32902  -0.32625
 Alpha  occ. eigenvalues --   -0.32263  -0.32051  -0.31610  -0.31537  -0.30675
 Alpha  occ. eigenvalues --   -0.30544  -0.30148  -0.25936  -0.24700
 Alpha virt. eigenvalues --    0.02900   0.03966   0.06038   0.08082   0.09052
 Alpha virt. eigenvalues --    0.09610   0.10067   0.10338   0.11071   0.11485
 Alpha virt. eigenvalues --    0.12951   0.14089   0.14625   0.15162   0.15433

 Mulliken charges:
               1
     1  N   -0.314444
     2  C    0.184480
     3  C    0.051244
     4  N   -0.263896
     5  C    0.139906
     6  H    0.026366
     7  N   -0.289581
     8  C    0.126370
     9  H    0.017848
    10  N   -0.275249
    11  C    0.264969
    12  C    0.096873
    13  N   -0.068087
    14  H    0.107404
    15  H    0.078957
    16  H    0.020986
    17  H    0.032002
    18  H    0.030652
    19  N   -0.304529
    20  C    0.230333
    21  C    0.180633
    22  N   -0.096465
    23  H    0.107582
    24  H    0.110674
    25  N   -0.303978
    26  C    0.219936
    27  N   -0.126863
    28  H    0.111718
    29  C    0.180344
    30  O   -0.322999
    31  C   -0.012480
    32  N   -0.222858
    33  C    0.127223
    34  H    0.019439
    35  H    0.027771
    36  H    0.028152
    37  H    0.023688
    38  H    0.056580
    39  H    0.059240
    40  H    0.075709
    41  H    0.029749
    42  C   -0.114298
    43  O   -0.260071
    44  C    0.179285
    45  H    0.134216
    46  N   -0.129934
    47  O   -0.341509
    48  C    0.350794
    49  H    0.043468
    50  C    0.164004
    51  C    0.040444
    52  N   -0.283388
    53  H    0.035971
    54  H    0.035008
    55  H    0.033016
    56  H    0.119233
    57  H    0.120216
    58  N   -0.060005
    59  C    0.075351
    60  C    0.259997
    61  N   -0.293470
    62  H    0.034052
    63  C    0.193524
    64  N   -0.306508
    65  H    0.040438
    66  C    0.138801
    67  N   -0.257620
    68  C    0.016387
    69  C    0.181462
    70  N   -0.314261
 Sum of Mulliken charges =  -0.00000

 Dipole moment (field-independent basis, Debye):
    X=             -9.1473    Y=              5.3888    Z=             -2.4723  Tot=             10.9007
 Quadrupole moment (field-independent basis, Debye-Ang):
   XX=           -166.4616   YY=           -213.8561   ZZ=           -254.5600
   XY=              6.9984   XZ=            -13.3293   YZ=              9.8738

 Normal termination of Gaussian 16 at Fri Jan 26 10:32:32 2018.
