 Gaussian 16, Revision A.03,
 Gaussian 16:  EM64L-G16RevA.03 25-Dec-2016

 ---------------------------------------
 #p wb97xd/cc-pvdz sp scf=(maxcycles=20)
 ---------------------------------------

 ------------------
 Base pair stacking
 ------------------
 Symbolic Z-matrix:
 Charge =  0 Multiplicity = 1

                         Standard orientation:
 ---------------------------------------------------------------------
 Center     Atomic      Atomic             Coordinates (Angstroms)
 Number     Number       Type             X           Y           Z
 ---------------------------------------------------------------------
      1          7           0       -6.992337   -1.584324    0.163871
      2          6           0       -8.395116   -1.130391    0.099298
      3          6           0       -4.814479   -1.660661    0.461222
      4          7           0       -5.189079   -2.918472    0.011438
      5          6           0       -6.486175   -2.822135   -0.149704
      6          1           0       -7.129378   -3.630703   -0.498205
      7          7           0       -3.540921    0.172156    1.223976
      8          6           0       -4.689952    0.854309    1.268428
      9          1           0       -4.605077    1.886754    1.604780
     10          7           0       -5.922295    0.454484    0.961219
     11          6           0       -5.915217   -0.827513    0.560158
     12          6           0       -3.567185   -1.115527    0.816211
     13          7           0       -2.421239   -1.798117    0.771172
     14          1           0       -2.393549   -2.753665    0.475550
     15          1           0       -1.551808   -1.377883    1.031242
     16          1           0       -8.957897   -1.695605    0.702627
     17          1           0       -8.451076   -0.175816    0.390452
     18          1           0       -8.730895   -1.211096   -0.839177
     19          7           0       -1.822355    3.092581   -1.907225
     20          6           0       -0.559429    2.599476   -1.683767
     21          6           0       -2.190803    4.522550   -1.918737
     22          7           0        2.804798    3.139214   -1.011181
     23          1           0        3.627525    2.587971   -0.875209
     24          1           0        2.908725    4.132260   -0.949657
     25          7           0        0.548191    3.332538   -1.439153
     26          6           0        1.615182    2.573121   -1.264671
     27          7           0        1.600706    1.200652   -1.324752
     28          1           0        2.464704    0.701539   -1.178625
     29          6           0        0.472613    0.425650   -1.575071
     30          8           0        0.567628   -0.807486   -1.608178
     31          6           0       -0.681517    1.227487   -1.764613
     32          7           0       -1.994654    0.866509   -2.033418
     33          6           0       -2.633290    2.002548   -2.109414
     34          1           0       -3.700259    2.102795   -2.311393
     35          1           0       -2.875234    4.697813   -1.211886
     36          1           0       -1.378266    5.075375   -1.738659
     37          1           0       -2.565874    4.764634   -2.812908
     38          1           0        6.948651   -1.209052    0.269340
     39          1           0        7.190970   -1.403879   -1.465019
     40          1           0        6.215928   -0.065827   -0.856509
     41          1           0        4.321543   -5.155507   -0.549426
     42          6           0        4.251072   -4.075653   -0.680573
     43          8           0        1.901631   -4.083599   -1.007927
     44          6           0        2.972271   -3.482110   -0.925923
     45          1           0        2.110180   -1.654811   -1.251641
     46          7           0        2.994904   -2.110271   -1.076867
     47          8           0        4.012776   -0.082015   -1.162499
     48          6           0        4.092757   -1.288972   -1.015740
     49          1           0        6.335461   -3.702844   -0.431240
     50          6           0        5.340090   -3.300795   -0.615466
     51          6           0        6.490234   -1.098806   -0.702147
     52          7           0        5.289290   -1.935490   -0.775946
     53          1           0        2.985015    3.987939    3.576468
     54          1           0        1.868288    4.094371    2.391693
     55          1           0        3.456532    4.185051    2.026548
     56          1           0        1.079229   -2.803341    1.271674
     57          1           0        2.654321   -2.415449    1.799610
     58          7           0        1.734008   -2.104473    1.559758
     59          6           0        1.395968   -0.814872    1.621666
     60          6           0        1.782127    1.496538    2.033968
     61          7           0        0.538861    1.885261    1.705930
     62          1           0       -1.225945    1.063524    1.065000
     63          6           0       -0.199013    0.836325    1.347927
     64          7           0        0.137721   -0.456060    1.285267
     65          1           0        4.849361    1.812090    3.005910
     66          6           0        3.881544    1.443365    2.664876
     67          7           0        3.607255    0.185201    2.420985
     68          6           0        2.279231    0.204945    2.020110
     69          6           0        2.779651    3.756878    2.625452
     70          7           0        2.822739    2.291987    2.451576
 ---------------------------------------------------------------------

 SCF Done:  E(RwB97XD) =  -2048.74269419     A.U. after   15 cycles

 The electronic state is 1-A.
 Alpha  occ. eigenvalues --  -19.26198 -19.22761 -19.20948 -14.52902 -14.51141
 Alpha  occ. eigenvalues --  -14.49033 -14.48692 -14.48331 -14.47532 -14.47361
 Alpha  occ. eigenvalues --  -14.46413 -14.44202 -14.42667 -14.42567 -14.42454
 Alpha  occ. eigenvalues --  -14.41907 -14.41370 -14.41032 -14.40738 -14.39958
 Alpha  occ. eigenvalues --  -10.45880 -10.41728 -10.40790 -10.38593 -10.38360
 Alpha  occ. eigenvalues --  -10.38280 -10.36751 -10.35698 -10.35562 -10.35223
 Alpha  occ. eigenvalues --  -10.34659 -10.34109 -10.34026 -10.33496 -10.33262
 Alpha  occ. eigenvalues --  -10.32921 -10.32892 -10.31625 -10.31213 -10.31094
 Alpha  occ. eigenvalues --  -10.30877 -10.28453 -10.28430  -1.19818  -1.13864
 Alpha  occ. eigenvalues --   -1.13736  -1.13573  -1.11271  -1.10883  -1.09787
 Alpha  occ. eigenvalues --   -1.09057  -1.07625  -1.04805  -1.03300  -1.02950
 Alpha  occ. eigenvalues --   -1.00401  -1.00236  -0.99615  -0.98896  -0.96864
 Alpha  occ. eigenvalues --   -0.96848  -0.95195  -0.92440  -0.91569  -0.86244
 Alpha  occ. eigenvalues --   -0.84667  -0.84427  -0.84046  -0.83842  -0.82775
 Alpha  occ. eigenvalues --   -0.82214  -0.79381  -0.75584  -0.74974  -0.74163
 Alpha  occ. eigenvalues --   -0.73847  -0.73260  -0.72759  -0.70913  -0.68971
 Alpha  occ. eigenvalues --   -0.67860  -0.67028  -0.66154  -0.65330  -0.64890
 Alpha  occ. eigenvalues --   -0.64139  -0.63057  -0.62822  -0.62483  -0.62251
 Alpha  occ. eigenvalues --   -0.60060  -0.59984  -0.59980  -0.59095  -0.59006
 Alpha  occ. eigenvalues --   -0.58697  -0.58206  -0.56890  -0.56359  -0.56345
 Alpha  occ. eigenvalues --   -0.56310  -0.55201  -0.54856  -0.54683  -0.54033
 Alpha  occ. eigenvalues --   -0.53989  -0.53745  -0.53299  -0.52824  -0.52497
 Alpha  occ. eigenvalues --   -0.52224  -0.51621  -0.51466  -0.50613  -0.50538
 Alpha  occ. eigenvalues --   -0.50050  -0.49881  -0.49317  -0.49079  -0.48973
 Alpha  occ. eigenvalues --   -0.48599  -0.48469  -0.48071  -0.47809  -0.47704
 Alpha  occ. eigenvalues --   -0.46820  -0.45473  -0.44960  -0.44577  -0.43202
 Alpha  occ. eigenvalues --   -0.41008  -0.39801  -0.39333  -0.37737  -0.37600
 Alpha  occ. eigenvalues --   -0.37047  -0.36958  -0.36120  -0.35598  -0.34935
 Alpha  occ. eigenvalues --   -0.33878  -0.33467  -0.33368  -0.33068  -0.32968
 Alpha  occ. eigenvalues --   -0.32677  -0.32561  -0.32436  -0.32128  -0.30810
 Alpha  occ. eigenvalues --   -0.30185  -0.28499  -0.25834  -0.25604
 Alpha virt. eigenvalues --    0.02464   0.05361   0.07790   0.08109   0.08394
 Alpha virt. eigenvalues --    0.09264   0.09362   0.11153   0.11510   0.12210
 Alpha virt. eigenvalues --    0.12663   0.14042   0.14529   0.14776   0.15265

 Mulliken charges:
               1
     1  N   -0.310871
     2  C    0.181083
     3  C    0.029604
     4  N   -0.258425
     5  C    0.132760
     6  H    0.026045
     7  N   -0.292272
     8  C    0.132693
     9  H    0.009259
    10  N   -0.290428
    11  C    0.241403
    12  C    0.125236
    13  N   -0.054258
    14  H    0.109990
    15  H    0.090899
    16  H    0.025224
    17  H    0.034779
    18  H    0.025483
    19  N   -0.311502
    20  C    0.251263
    21  C    0.182035
    22  N   -0.121100
    23  H    0.116275
    24  H    0.117773
    25  N   -0.299863
    26  C    0.229172
    27  N   -0.127730
    28  H    0.117390
    29  C    0.165987
    30  O   -0.320763
    31  C   -0.007642
    32  N   -0.219823
    33  C    0.130943
    34  H    0.031353
    35  H    0.030018
    36  H    0.027937
    37  H    0.025297
    38  H    0.063433
    39  H    0.060136
    40  H    0.075341
    41  H    0.033172
    42  C   -0.108408
    43  O   -0.270824
    44  C    0.152473
    45  H    0.135277
    46  N   -0.126321
    47  O   -0.348999
    48  C    0.358960
    49  H    0.050814
    50  C    0.173134
    51  C    0.043271
    52  N   -0.295605
    53  H    0.030830
    54  H    0.045109
    55  H    0.012200
    56  H    0.128528
    57  H    0.110924
    58  N   -0.059240
    59  C    0.094496
    60  C    0.239355
    61  N   -0.262024
    62  H    0.046089
    63  C    0.154735
    64  N   -0.296092
    65  H    0.028035
    66  C    0.127238
    67  N   -0.268700
    68  C    0.024490
    69  C    0.181066
    70  N   -0.308119
 Sum of Mulliken charges =  -0.00000

 Dipole moment (field-independent basis, Debye):
    X=              9.1786    Y=              5.1086    Z=              1.2946  Tot=             10.5840
 Quadrupole moment (field-independent basis, Debye-Ang):
   XX=           -150.5177   YY=           -213.6093   ZZ=           -248.9570
   XY=             -1.3809   XZ=             11.7681   YZ=             -6.0831

 Normal termination of Gaussian 16 at Fri Jan 26 06:25:52 2018.
