 Gaussian 16, Revision A.03,
 Gaussian 16:  EM64L-G16RevA.03 25-Dec-2016

 ---------------------------------------
 #p wb97xd/cc-pvdz sp scf=(maxcycles=20)
 ---------------------------------------

 ------------------
 Base pair stacking
 ------------------
 Symbolic Z-matrix:
 Charge =  0 Multiplicity = 1

                         Standard orientation:
 ---------------------------------------------------------------------
 Center     Atomic      Atomic             Coordinates (Angstroms)
 Number     Number       Type             X           Y           Z
 ---------------------------------------------------------------------
      1          7           0       -7.194030   -1.581366    0.089357
      2          6           0       -8.582276   -1.119841   -0.105018
      3          6           0       -5.030505   -1.645339    0.479711
      4          7           0       -5.419284   -2.954122    0.233392
      5          6           0       -6.707164   -2.863197    0.008075
      6          1           0       -7.357029   -3.707342   -0.224385
      7          7           0       -3.740737    0.266840    0.972672
      8          6           0       -4.873800    0.967145    0.857215
      9          1           0       -4.775923    2.039850    1.018395
     10          7           0       -6.103827    0.543307    0.573864
     11          6           0       -6.113582   -0.787917    0.394439
     12          6           0       -3.783714   -1.070509    0.786303
     13          7           0       -2.653717   -1.771293    0.901128
     14          1           0       -2.638713   -2.763355    0.771522
     15          1           0       -1.784107   -1.328796    1.120508
     16          1           0       -9.179489   -1.564973    0.562336
     17          1           0       -8.625383   -0.128969    0.019254
     18          1           0       -8.886557   -1.351746   -1.028937
     19          7           0       -1.656303    2.943708   -1.824887
     20          6           0       -0.393258    2.474724   -1.555033
     21          6           0       -2.068647    4.360941   -1.778727
     22          7           0        2.908099    3.070474   -0.656220
     23          1           0        3.738746    2.535963   -0.502764
     24          1           0        2.976779    4.060918   -0.533650
     25          7           0        0.674721    3.223765   -1.205184
     26          6           0        1.753501    2.486246   -1.010480
     27          7           0        1.786016    1.119609   -1.147402
     28          1           0        2.655628    0.637710   -0.978488
     29          6           0        0.699273    0.328454   -1.506461
     30          8           0        0.835079   -0.897558   -1.602307
     31          6           0       -0.466947    1.106698   -1.718968
     32          7           0       -1.750415    0.724521   -2.084394
     33          6           0       -2.419353    1.844437   -2.134751
     34          1           0       -3.475635    1.925724   -2.393454
     35          1           0       -2.797665    4.475925   -1.104848
     36          1           0       -1.285701    4.925422   -1.520623
     37          1           0       -2.399358    4.643067   -2.678647
     38          1           0        7.107569   -1.224419    0.623182
     39          1           0        7.454912   -1.312658   -1.101990
     40          1           0        6.404678   -0.039894   -0.478728
     41          1           0        4.658151   -5.190593   -0.566916
     42          6           0        4.561107   -4.107459   -0.641855
     43          8           0        2.235715   -4.163422   -1.107179
     44          6           0        3.280291   -3.537427   -0.928890
     45          1           0        2.380760   -1.719713   -1.202966
     46          7           0        3.268015   -2.159099   -1.001856
     47          8           0        4.224289   -0.101158   -0.914583
     48          6           0        4.333968   -1.311769   -0.830586
     49          1           0        6.614911   -3.690429   -0.249681
     50          6           0        5.619485   -3.306945   -0.469709
     51          6           0        6.702306   -1.071807   -0.366024
     52          7           0        5.534704   -1.936698   -0.556866
     53          1           0        2.788402    4.307624    2.902594
     54          1           0        1.717091    4.232532    1.674292
     55          1           0        3.318965    4.231883    1.361111
     56          1           0        0.801587   -2.740032    1.699043
     57          1           0        2.365976   -2.296837    2.215138
     58          7           0        1.462492   -2.014397    1.890865
     59          6           0        1.153734   -0.727010    1.722084
     60          6           0        1.580853    1.613548    1.754947
     61          7           0        0.359695    1.963503    1.318214
     62          1           0       -1.400729    1.077063    0.756317
     63          6           0       -0.390216    0.882552    1.113091
     64          7           0       -0.082810   -0.407679    1.281550
     65          1           0        4.618599    2.033725    2.778541
     66          6           0        3.654790    1.630096    2.466939
     67          7           0        3.358949    0.353925    2.427380
     68          6           0        2.046767    0.329468    1.977586
     69          6           0        2.611216    3.923094    1.996654
     70          7           0        2.624988    2.449338    2.073122
 ---------------------------------------------------------------------

 SCF Done:  E(RwB97XD) =  -2048.72582942     A.U. after   15 cycles

 The electronic state is 1-A.
 Alpha  occ. eigenvalues --  -19.26059 -19.22303 -19.20996 -14.52674 -14.51099
 Alpha  occ. eigenvalues --  -14.49069 -14.49003 -14.48158 -14.47513 -14.47302
 Alpha  occ. eigenvalues --  -14.46641 -14.44179 -14.42587 -14.42414 -14.42392
 Alpha  occ. eigenvalues --  -14.42349 -14.41706 -14.41106 -14.41037 -14.40343
 Alpha  occ. eigenvalues --  -10.45717 -10.41668 -10.40411 -10.38631 -10.38358
 Alpha  occ. eigenvalues --  -10.38048 -10.36689 -10.35632 -10.35624 -10.35475
 Alpha  occ. eigenvalues --  -10.34576 -10.34357 -10.34136 -10.33612 -10.33559
 Alpha  occ. eigenvalues --  -10.33296 -10.32995 -10.31342 -10.31130 -10.31104
 Alpha  occ. eigenvalues --  -10.31090 -10.28802 -10.28499  -1.19646  -1.14103
 Alpha  occ. eigenvalues --   -1.13455  -1.13309  -1.11601  -1.10910  -1.09566
 Alpha  occ. eigenvalues --   -1.09171  -1.07682  -1.05190  -1.03278  -1.02777
 Alpha  occ. eigenvalues --   -1.00775  -1.00632  -0.99495  -0.98894  -0.97193
 Alpha  occ. eigenvalues --   -0.96881  -0.95246  -0.92830  -0.91298  -0.86380
 Alpha  occ. eigenvalues --   -0.84811  -0.84450  -0.84162  -0.83892  -0.82807
 Alpha  occ. eigenvalues --   -0.82523  -0.79133  -0.75635  -0.75026  -0.74304
 Alpha  occ. eigenvalues --   -0.73624  -0.73318  -0.73121  -0.71277  -0.69052
 Alpha  occ. eigenvalues --   -0.67952  -0.66816  -0.66515  -0.65426  -0.64739
 Alpha  occ. eigenvalues --   -0.64073  -0.63083  -0.63049  -0.62780  -0.62549
 Alpha  occ. eigenvalues --   -0.60388  -0.59864  -0.59782  -0.59620  -0.59271
 Alpha  occ. eigenvalues --   -0.58976  -0.58298  -0.56897  -0.56677  -0.56574
 Alpha  occ. eigenvalues --   -0.56231  -0.55586  -0.54872  -0.54618  -0.54064
 Alpha  occ. eigenvalues --   -0.53951  -0.53564  -0.53274  -0.52666  -0.52541
 Alpha  occ. eigenvalues --   -0.51966  -0.51886  -0.51509  -0.50938  -0.50464
 Alpha  occ. eigenvalues --   -0.50375  -0.49673  -0.49319  -0.49096  -0.48861
 Alpha  occ. eigenvalues --   -0.48592  -0.48571  -0.48243  -0.47729  -0.47366
 Alpha  occ. eigenvalues --   -0.47170  -0.45438  -0.45313  -0.44279  -0.43099
 Alpha  occ. eigenvalues --   -0.41393  -0.39682  -0.39563  -0.37791  -0.37602
 Alpha  occ. eigenvalues --   -0.37394  -0.36582  -0.36032  -0.35667  -0.35298
 Alpha  occ. eigenvalues --   -0.33770  -0.33710  -0.33493  -0.33074  -0.33018
 Alpha  occ. eigenvalues --   -0.32402  -0.32323  -0.32219  -0.32142  -0.31167
 Alpha  occ. eigenvalues --   -0.30544  -0.28367  -0.26009  -0.25762
 Alpha virt. eigenvalues --    0.02849   0.05348   0.07698   0.07953   0.08218
 Alpha virt. eigenvalues --    0.09038   0.09676   0.10770   0.11131   0.12491
 Alpha virt. eigenvalues --    0.13097   0.13762   0.14311   0.14619   0.14873

 Mulliken charges:
               1
     1  N   -0.310984
     2  C    0.181037
     3  C    0.028774
     4  N   -0.259289
     5  C    0.133984
     6  H    0.027309
     7  N   -0.290408
     8  C    0.131828
     9  H    0.008429
    10  N   -0.288704
    11  C    0.242935
    12  C    0.123451
    13  N   -0.056537
    14  H    0.108090
    15  H    0.089142
    16  H    0.025741
    17  H    0.035324
    18  H    0.026409
    19  N   -0.308126
    20  C    0.252564
    21  C    0.183108
    22  N   -0.103412
    23  H    0.116281
    24  H    0.118641
    25  N   -0.273401
    26  C    0.183762
    27  N   -0.110260
    28  H    0.120886
    29  C    0.163707
    30  O   -0.319764
    31  C   -0.020202
    32  N   -0.215302
    33  C    0.128545
    34  H    0.031418
    35  H    0.030155
    36  H    0.027023
    37  H    0.025189
    38  H    0.061878
    39  H    0.060077
    40  H    0.074357
    41  H    0.032637
    42  C   -0.112394
    43  O   -0.267414
    44  C    0.172096
    45  H    0.134882
    46  N   -0.138987
    47  O   -0.349676
    48  C    0.364069
    49  H    0.049108
    50  C    0.172704
    51  C    0.043218
    52  N   -0.298444
    53  H    0.029748
    54  H    0.045652
    55  H   -0.004785
    56  H    0.123820
    57  H    0.112940
    58  N   -0.062824
    59  C    0.099790
    60  C    0.217271
    61  N   -0.254551
    62  H    0.043778
    63  C    0.159939
    64  N   -0.296361
    65  H    0.025919
    66  C    0.116128
    67  N   -0.262205
    68  C    0.031422
    69  C    0.181043
    70  N   -0.292176
 Sum of Mulliken charges =  -0.00000

 Dipole moment (field-independent basis, Debye):
    X=              8.4146    Y=              5.0444    Z=              2.2839  Tot=             10.0731
 Quadrupole moment (field-independent basis, Debye-Ang):
   XX=           -148.4749   YY=           -215.3228   ZZ=           -251.0582
   XY=              1.0833   XZ=             13.6818   YZ=             -9.7301

 Normal termination of Gaussian 16 at Thu Jan 25 21:11:38 2018.
