 Gaussian 16, Revision A.03,
 Gaussian 16:  EM64L-G16RevA.03 25-Dec-2016

 ---------------------------------------
 #p wb97xd/cc-pvdz sp scf=(maxcycles=20)
 ---------------------------------------

 ------------------
 Base pair stacking
 ------------------
 Symbolic Z-matrix:
 Charge =  0 Multiplicity = 1

                         Standard orientation:
 ---------------------------------------------------------------------
 Center     Atomic      Atomic             Coordinates (Angstroms)
 Number     Number       Type             X           Y           Z
 ---------------------------------------------------------------------
      1          7           0       -6.480414   -1.663554    0.541119
      2          6           0       -7.883223   -1.205715    0.518532
      3          6           0       -4.293035   -1.741197    0.757069
      4          7           0       -4.688452   -3.008470    0.354104
      5          6           0       -5.990437   -2.910983    0.240126
      6          1           0       -6.648998   -3.725494   -0.062875
      7          7           0       -2.985581    0.105171    1.423746
      8          6           0       -4.129950    0.792907    1.494572
      9          1           0       -4.029087    1.833184    1.801021
     10          7           0       -5.374360    0.390430    1.244859
     11          6           0       -5.386594   -0.901343    0.876631
     12          6           0       -3.031402   -1.192321    1.050239
     13          7           0       -1.890134   -1.880496    0.978955
     14          1           0       -1.876718   -2.843331    0.706936
     15          1           0       -1.010102   -1.457343    1.194893
     16          1           0       -8.424277   -1.753152    1.157089
     17          1           0       -7.925057   -0.243833    0.787185
     18          1           0       -8.254875   -1.308812   -0.404098
     19          7           0       -2.440235    3.149813   -1.792512
     20          6           0       -1.165746    2.661880   -1.632413
     21          6           0       -2.824400    4.573886   -1.720874
     22          7           0        2.211530    3.209035   -1.035415
     23          1           0        3.044005    2.661931   -0.952278
     24          1           0        2.306478    4.198976   -0.927122
     25          7           0       -0.059154    3.395487   -1.384760
     26          6           0        1.020896    2.641603   -1.281040
     27          7           0        1.019510    1.273778   -1.409691
     28          1           0        1.892990    0.778746   -1.315048
     29          6           0       -0.107242    0.498312   -1.664537
     30          8           0        0.000117   -0.730344   -1.762548
     31          6           0       -1.275315    1.294229   -1.778521
     32          7           0       -2.592113    0.930881   -2.025372
     33          6           0       -3.245098    2.061279   -2.024741
     34          1           0       -4.318807    2.158246   -2.189108
     35          1           0       -3.488616    4.705091   -0.985745
     36          1           0       -2.012773    5.127067   -1.537812
     37          1           0       -3.229442    4.855701   -2.589975
     38          1           0        6.439918   -1.146035   -0.101217
     39          1           0        6.630819   -1.250885   -1.849712
     40          1           0        5.660476    0.042859   -1.145424
     41          1           0        3.831943   -5.078926   -1.037945
     42          6           0        3.745730   -3.994834   -1.112364
     43          8           0        1.387543   -4.015571   -1.368594
     44          6           0        2.453596   -3.405680   -1.288772
     45          1           0        1.562041   -1.575219   -1.495880
     46          7           0        2.456637   -2.027833   -1.371060
     47          8           0        3.449252    0.014640   -1.385159
     48          6           0        3.546847   -1.197048   -1.301849
     49          1           0        5.832621   -3.609108   -0.907636
     50          6           0        4.827735   -3.210733   -1.041246
     51          6           0        5.950633   -0.993063   -1.051623
     52          7           0        4.757169   -1.839854   -1.131154
     53          1           0        3.637293    3.952772    3.427693
     54          1           0        2.476439    4.033677    2.284026
     55          1           0        4.049841    4.108606    1.856399
     56          1           0        1.623774   -2.886942    1.371089
     57          1           0        3.219097   -2.492213    1.828530
     58          7           0        2.291247   -2.183666    1.616088
     59          6           0        1.959818   -0.891543    1.657951
     60          6           0        2.368616    1.427980    1.996179
     61          7           0        1.114930    1.813327    1.705981
     62          1           0       -0.675622    0.982781    1.153948
     63          6           0        0.360668    0.758649    1.403230
     64          7           0        0.690756   -0.536267    1.360732
     65          1           0        5.471721    1.755593    2.842109
     66          6           0        4.490438    1.382272    2.547735
     67          7           0        4.203121    0.119463    2.346631
     68          6           0        2.860816    0.134434    1.996309
     69          6           0        3.395022    3.698511    2.491386
     70          7           0        3.426884    2.229523    2.353391
 ---------------------------------------------------------------------

 SCF Done:  E(RwB97XD) =  -2048.74332242     A.U. after   15 cycles

 The electronic state is 1-A.
 Alpha  occ. eigenvalues --  -19.26145 -19.22561 -19.20783 -14.52777 -14.51776
 Alpha  occ. eigenvalues --  -14.48882 -14.48452 -14.48076 -14.47377 -14.47120
 Alpha  occ. eigenvalues --  -14.47086 -14.44818 -14.43374 -14.43328 -14.42226
 Alpha  occ. eigenvalues --  -14.41823 -14.41107 -14.40888 -14.40539 -14.39798
 Alpha  occ. eigenvalues --  -10.45766 -10.41456 -10.40591 -10.39080 -10.38382
 Alpha  occ. eigenvalues --  -10.38262 -10.37360 -10.36358 -10.35314 -10.35043
 Alpha  occ. eigenvalues --  -10.34818 -10.34499 -10.33775 -10.33456 -10.33331
 Alpha  occ. eigenvalues --  -10.33017 -10.32737 -10.31893 -10.31552 -10.31009
 Alpha  occ. eigenvalues --  -10.30706 -10.28255 -10.28177  -1.19720  -1.14469
 Alpha  occ. eigenvalues --   -1.13532  -1.13391  -1.11021  -1.10710  -1.09663
 Alpha  occ. eigenvalues --   -1.08786  -1.08429  -1.04611  -1.04007  -1.02807
 Alpha  occ. eigenvalues --   -1.00302  -1.00075  -1.00054  -0.98701  -0.96691
 Alpha  occ. eigenvalues --   -0.96654  -0.95944  -0.92262  -0.91456  -0.86889
 Alpha  occ. eigenvalues --   -0.85294  -0.84254  -0.83846  -0.83620  -0.82631
 Alpha  occ. eigenvalues --   -0.82007  -0.79251  -0.76281  -0.74791  -0.73980
 Alpha  occ. eigenvalues --   -0.73910  -0.73672  -0.72562  -0.70709  -0.69686
 Alpha  occ. eigenvalues --   -0.67616  -0.66862  -0.66048  -0.65966  -0.64729
 Alpha  occ. eigenvalues --   -0.63977  -0.63537  -0.62879  -0.62355  -0.61994
 Alpha  occ. eigenvalues --   -0.60027  -0.59955  -0.59838  -0.59806  -0.59168
 Alpha  occ. eigenvalues --   -0.58825  -0.58681  -0.56777  -0.56234  -0.56225
 Alpha  occ. eigenvalues --   -0.56098  -0.55094  -0.54832  -0.54681  -0.54502
 Alpha  occ. eigenvalues --   -0.53864  -0.53690  -0.53145  -0.53007  -0.52793
 Alpha  occ. eigenvalues --   -0.52621  -0.52082  -0.51468  -0.50397  -0.50364
 Alpha  occ. eigenvalues --   -0.49881  -0.49724  -0.49205  -0.49130  -0.48772
 Alpha  occ. eigenvalues --   -0.48515  -0.48432  -0.48350  -0.47932  -0.47589
 Alpha  occ. eigenvalues --   -0.46623  -0.45710  -0.44724  -0.44444  -0.43787
 Alpha  occ. eigenvalues --   -0.40785  -0.39943  -0.39684  -0.37570  -0.37411
 Alpha  occ. eigenvalues --   -0.37261  -0.36831  -0.36736  -0.35856  -0.34376
 Alpha  occ. eigenvalues --   -0.34000  -0.33675  -0.33446  -0.33150  -0.33086
 Alpha  occ. eigenvalues --   -0.32768  -0.32543  -0.32382  -0.31934  -0.30542
 Alpha  occ. eigenvalues --   -0.30040  -0.29206  -0.25702  -0.25327
 Alpha virt. eigenvalues --    0.02554   0.04773   0.07533   0.08305   0.08464
 Alpha virt. eigenvalues --    0.09097   0.09468   0.11182   0.11524   0.11776
 Alpha virt. eigenvalues --    0.12412   0.14248   0.14404   0.14761   0.15049

 Mulliken charges:
               1
     1  N   -0.311553
     2  C    0.181194
     3  C    0.036223
     4  N   -0.258771
     5  C    0.133349
     6  H    0.025351
     7  N   -0.295347
     8  C    0.138082
     9  H    0.007424
    10  N   -0.292537
    11  C    0.245159
    12  C    0.125006
    13  N   -0.054300
    14  H    0.111246
    15  H    0.089543
    16  H    0.024507
    17  H    0.033667
    18  H    0.025599
    19  N   -0.312550
    20  C    0.246770
    21  C    0.181390
    22  N   -0.118092
    23  H    0.115388
    24  H    0.115684
    25  N   -0.302964
    26  C    0.235035
    27  N   -0.132135
    28  H    0.112490
    29  C    0.160962
    30  O   -0.317619
    31  C    0.005620
    32  N   -0.223540
    33  C    0.129689
    34  H    0.028954
    35  H    0.029197
    36  H    0.028158
    37  H    0.024984
    38  H    0.064597
    39  H    0.058438
    40  H    0.074668
    41  H    0.032371
    42  C   -0.109385
    43  O   -0.265749
    44  C    0.148559
    45  H    0.134916
    46  N   -0.119692
    47  O   -0.346655
    48  C    0.351984
    49  H    0.049794
    50  C    0.165588
    51  C    0.043209
    52  N   -0.289533
    53  H    0.033523
    54  H    0.044591
    55  H    0.019460
    56  H    0.129823
    57  H    0.113049
    58  N   -0.066218
    59  C    0.083480
    60  C    0.229818
    61  N   -0.259737
    62  H    0.046108
    63  C    0.163678
    64  N   -0.301400
    65  H    0.032448
    66  C    0.134119
    67  N   -0.268981
    68  C    0.037293
    69  C    0.176453
    70  N   -0.311874
 Sum of Mulliken charges =  -0.00000

 Dipole moment (field-independent basis, Debye):
    X=              9.1495    Y=              5.2577    Z=              1.5470  Tot=             10.6654
 Quadrupole moment (field-independent basis, Debye-Ang):
   XX=           -155.7455   YY=           -212.8870   ZZ=           -250.9850
   XY=             -3.3627   XZ=              6.5239   YZ=             -5.8952

 Normal termination of Gaussian 16 at Thu Jan 25 23:56:11 2018.
