 Gaussian 16, Revision A.03,
 Gaussian 16:  EM64L-G16RevA.03 25-Dec-2016

 ---------------------------------------
 #p wb97xd/cc-pvdz sp scf=(maxcycles=20)
 ---------------------------------------

 ------------------
 Base pair stacking
 ------------------
 Symbolic Z-matrix:
 Charge =  0 Multiplicity = 1

                         Standard orientation:
 ---------------------------------------------------------------------
 Center     Atomic      Atomic             Coordinates (Angstroms)
 Number     Number       Type             X           Y           Z
 ---------------------------------------------------------------------
      1          7           0        4.934815   -2.103469   -1.597377
      2          6           0        6.340419   -1.716673   -1.826918
      3          6           0        2.742573   -2.071177   -1.423200
      4          7           0        3.139895   -3.356579   -1.084633
      5          6           0        4.444744   -3.324575   -1.203121
      6          1           0        5.105430   -4.171036   -1.013576
      7          7           0        1.430701   -0.161704   -1.865730
      8          6           0        2.577092    0.467640   -2.143745
      9          1           0        2.475161    1.511562   -2.437180
     10          7           0        3.824626    0.003248   -2.113839
     11          6           0        3.837919   -1.287370   -1.741619
     12          6           0        1.477664   -1.459717   -1.494192
     13          7           0        0.334378   -2.089654   -1.216265
     14          1           0        0.321707   -3.050496   -0.937260
     15          1           0       -0.547971   -1.622898   -1.277420
     16          1           0        6.732411   -2.290836   -2.545848
     17          1           0        6.381568   -0.758217   -2.107619
     18          1           0        6.863696   -1.837967   -0.983441
     19          7           0        4.159924    3.115576    1.042650
     20          6           0        2.854934    2.697143    1.142395
     21          6           0        4.594120    4.503221    0.784513
     22          7           0       -0.544319    3.406156    1.078065
     23          1           0       -1.404020    2.907225    1.183995
     24          1           0       -0.608727    4.388832    0.902198
     25          7           0        1.758866    3.477058    1.022315
     26          6           0        0.642080    2.786204    1.167629
     27          7           0        0.599738    1.434898    1.411913
     28          1           0       -0.299770    0.989445    1.508956
     29          6           0        1.714873    0.612618    1.539263
     30          8           0        1.566974   -0.595784    1.759770
     31          6           0        2.922049    1.340611    1.385568
     32          7           0        4.242612    0.915970    1.437450
     33          6           0        4.939390    2.000086    1.229101
     34          1           0        6.028747    2.042309    1.201166
     35          1           0        5.126610    4.535870   -0.060583
     36          1           0        3.790695    5.090179    0.693746
     37          1           0        5.156580    4.825228    1.545282
     38          1           0       -5.075620   -0.735882    1.249668
     39          1           0       -4.965849   -0.693902    3.007748
     40          1           0       -4.070805    0.478895    2.040891
     41          1           0       -2.537635   -4.739954    2.069776
     42          6           0       -2.387660   -3.660837    2.034652
     43          8           0       -0.024505   -3.808712    1.890634
     44          6           0       -1.057608   -3.141530    1.939203
     45          1           0       -0.056449   -1.359690    1.834151
     46          7           0       -0.979907   -1.763927    1.901457
     47          8           0       -1.855433    0.331462    1.906090
     48          6           0       -2.024288   -0.874618    1.945427
     49          1           0       -4.457425   -3.162705    2.151985
     50          6           0       -3.426553   -2.818634    2.079405
     51          6           0       -4.422433   -0.541083    2.087202
     52          7           0       -3.275453   -1.451969    2.037339
     53          1           0       -5.243833    4.013065   -2.704958
     54          1           0       -3.896588    4.035959   -1.784906
     55          1           0       -5.364006    4.190011   -1.087041
     56          1           0       -3.238877   -2.918418   -0.972825
     57          1           0       -4.868451   -2.444195   -1.145203
     58          7           0       -3.903583   -2.182584   -1.102687
     59          6           0       -3.521362   -0.908769   -1.214321
     60          6           0       -3.868421    1.428253   -1.496520
     61          7           0       -2.565710    1.750217   -1.435697
     62          1           0       -0.749027    0.830965   -1.200650
     63          6           0       -1.822836    0.659093   -1.261061
     64          7           0       -2.203776   -0.617579   -1.149020
     65          1           0       -7.052144    1.911046   -1.784577
     66          6           0       -6.053939    1.489005   -1.664541
     67          7           0       -5.798337    0.213432   -1.505635
     68          6           0       -4.416176    0.161066   -1.397838
     69          6           0       -4.852774    3.747302   -1.823801
     70          7           0       -4.932260    2.281813   -1.668778
 ---------------------------------------------------------------------

 SCF Done:  E(RwB97XD) =  -2048.74784948     A.U. after   15 cycles

 The electronic state is 1-A.
 Alpha  occ. eigenvalues --  -19.25508 -19.21794 -19.20504 -14.52533 -14.52218
 Alpha  occ. eigenvalues --  -14.48826 -14.48805 -14.47958 -14.47517 -14.46798
 Alpha  occ. eigenvalues --  -14.46507 -14.45530 -14.44690 -14.44609 -14.42289
 Alpha  occ. eigenvalues --  -14.41974 -14.40911 -14.40599 -14.40391 -14.39980
 Alpha  occ. eigenvalues --  -10.45194 -10.41164 -10.40315 -10.39917 -10.38153
 Alpha  occ. eigenvalues --  -10.38100 -10.37858 -10.37383 -10.36024 -10.35139
 Alpha  occ. eigenvalues --  -10.34841 -10.34347 -10.33944 -10.33357 -10.33337
 Alpha  occ. eigenvalues --  -10.32901 -10.32699 -10.32611 -10.31118 -10.31002
 Alpha  occ. eigenvalues --  -10.30169 -10.28089 -10.27924  -1.19118  -1.15303
 Alpha  occ. eigenvalues --   -1.13123  -1.12793  -1.10584  -1.10571  -1.09663
 Alpha  occ. eigenvalues --   -1.09092  -1.08469  -1.05188  -1.04647  -1.02188
 Alpha  occ. eigenvalues --   -1.01112  -1.00110  -0.99615  -0.98496  -0.97182
 Alpha  occ. eigenvalues --   -0.96606  -0.96269  -0.92340  -0.91006  -0.87786
 Alpha  occ. eigenvalues --   -0.86013  -0.84115  -0.83349  -0.83257  -0.82527
 Alpha  occ. eigenvalues --   -0.81652  -0.78740  -0.77271  -0.75076  -0.74592
 Alpha  occ. eigenvalues --   -0.73544  -0.73112  -0.72445  -0.70703  -0.70500
 Alpha  occ. eigenvalues --   -0.67304  -0.67112  -0.66340  -0.65848  -0.64522
 Alpha  occ. eigenvalues --   -0.64351  -0.63693  -0.62586  -0.62284  -0.61678
 Alpha  occ. eigenvalues --   -0.60783  -0.60400  -0.60068  -0.59467  -0.59392
 Alpha  occ. eigenvalues --   -0.59285  -0.58234  -0.56666  -0.56168  -0.55789
 Alpha  occ. eigenvalues --   -0.55547  -0.55438  -0.55144  -0.54529  -0.54166
 Alpha  occ. eigenvalues --   -0.53855  -0.53578  -0.53478  -0.53012  -0.52970
 Alpha  occ. eigenvalues --   -0.52858  -0.52198  -0.51147  -0.50201  -0.50135
 Alpha  occ. eigenvalues --   -0.50004  -0.49633  -0.49490  -0.49213  -0.48744
 Alpha  occ. eigenvalues --   -0.48448  -0.48265  -0.48046  -0.47693  -0.47210
 Alpha  occ. eigenvalues --   -0.46381  -0.45673  -0.45371  -0.44284  -0.43751
 Alpha  occ. eigenvalues --   -0.40887  -0.40705  -0.39167  -0.37912  -0.37783
 Alpha  occ. eigenvalues --   -0.37245  -0.37237  -0.36510  -0.35570  -0.35019
 Alpha  occ. eigenvalues --   -0.34667  -0.33867  -0.33108  -0.32971  -0.32802
 Alpha  occ. eigenvalues --   -0.32601  -0.32458  -0.31946  -0.31836  -0.30401
 Alpha  occ. eigenvalues --   -0.30322  -0.29962  -0.25516  -0.25292
 Alpha virt. eigenvalues --    0.02676   0.04254   0.06573   0.08469   0.08890
 Alpha virt. eigenvalues --    0.09296   0.09836   0.10430   0.11271   0.11452
 Alpha virt. eigenvalues --    0.13109   0.14477   0.14601   0.14915   0.15026

 Mulliken charges:
               1
     1  N   -0.313196
     2  C    0.183256
     3  C    0.051459
     4  N   -0.257487
     5  C    0.140258
     6  H    0.025675
     7  N   -0.299341
     8  C    0.135001
     9  H    0.009817
    10  N   -0.284581
    11  C    0.261598
    12  C    0.103874
    13  N   -0.068096
    14  H    0.112904
    15  H    0.081217
    16  H    0.021363
    17  H    0.032000
    18  H    0.029090
    19  N   -0.311224
    20  C    0.250488
    21  C    0.180701
    22  N   -0.115187
    23  H    0.114225
    24  H    0.115801
    25  N   -0.311549
    26  C    0.243379
    27  N   -0.146436
    28  H    0.117935
    29  C    0.194837
    30  O   -0.322188
    31  C   -0.015338
    32  N   -0.227495
    33  C    0.129171
    34  H    0.022468
    35  H    0.028196
    36  H    0.029061
    37  H    0.024630
    38  H    0.055807
    39  H    0.060265
    40  H    0.074658
    41  H    0.029515
    42  C   -0.118668
    43  O   -0.259935
    44  C    0.171129
    45  H    0.133302
    46  N   -0.125637
    47  O   -0.346630
    48  C    0.347680
    49  H    0.042967
    50  C    0.160518
    51  C    0.038776
    52  N   -0.278838
    53  H    0.034847
    54  H    0.040096
    55  H    0.029468
    56  H    0.117431
    57  H    0.117042
    58  N   -0.060143
    59  C    0.086864
    60  C    0.253166
    61  N   -0.275170
    62  H    0.036307
    63  C    0.176398
    64  N   -0.313977
    65  H    0.039166
    66  C    0.140241
    67  N   -0.265051
    68  C    0.026098
    69  C    0.179766
    70  N   -0.313748
 Sum of Mulliken charges =  -0.00000

 Dipole moment (field-independent basis, Debye):
    X=             -9.0186    Y=              5.8810    Z=             -0.7801  Tot=             10.7949
 Quadrupole moment (field-independent basis, Debye-Ang):
   XX=           -167.5248   YY=           -211.1743   ZZ=           -251.1890
   XY=              6.0909   XZ=            -11.9981   YZ=              3.6561

 Normal termination of Gaussian 16 at Fri Jan 26 16:43:30 2018.
