 Gaussian 16, Revision A.03,
 Gaussian 16:  EM64L-G16RevA.03 25-Dec-2016

 ---------------------------------------
 #p wb97xd/cc-pvdz sp scf=(maxcycles=20)
 ---------------------------------------

 ------------------
 Base pair stacking
 ------------------
 Symbolic Z-matrix:
 Charge =  0 Multiplicity = 1

                         Standard orientation:
 ---------------------------------------------------------------------
 Center     Atomic      Atomic             Coordinates (Angstroms)
 Number     Number       Type             X           Y           Z
 ---------------------------------------------------------------------
      1          7           0        4.254651   -2.207551   -1.885913
      2          6           0        5.656898   -1.847415   -2.172305
      3          6           0        2.077349   -2.124258   -1.586365
      4          7           0        2.452407   -3.437856   -1.344437
      5          6           0        3.749147   -3.435461   -1.534585
      6          1           0        4.392550   -4.309682   -1.431155
      7          7           0        0.803302   -0.156269   -1.844693
      8          6           0        1.951750    0.455978   -2.150940
      9          1           0        1.866447    1.517709   -2.378330
     10          7           0        3.183969   -0.044038   -2.218137
     11          6           0        3.177448   -1.354093   -1.921223
     12          6           0        0.830119   -1.474593   -1.550785
     13          7           0       -0.315259   -2.087508   -1.244833
     14          1           0       -0.342527   -3.062299   -1.020626
     15          1           0       -1.184665   -1.593505   -1.229319
     16          1           0        5.990748   -2.389284   -2.943726
     17          1           0        5.712429   -0.875706   -2.399955
     18          1           0        6.221664   -2.032407   -1.368053
     19          7           0        4.819370    2.972263    0.677859
     20          6           0        3.511887    2.588753    0.855146
     21          6           0        5.272489    4.343482    0.369396
     22          7           0        0.132195    3.381822    0.957455
     23          1           0       -0.732390    2.906764    1.118869
     24          1           0        0.082196    4.362361    0.765713
     25          7           0        2.430115    3.393658    0.777966
     26          6           0        1.306369    2.733971    0.996178
     27          7           0        1.244566    1.388929    1.269259
     28          1           0        0.341058    0.968166    1.422833
     29          6           0        2.344731    0.541354    1.353523
     30          8           0        2.179723   -0.658626    1.605624
     31          6           0        3.559165    1.235731    1.121399
     32          7           0        4.869970    0.778998    1.111473
     33          6           0        5.580546    1.841161    0.844816
     34          1           0        6.667539    1.855409    0.758187
     35          1           0        5.759528    4.346969   -0.503289
     36          1           0        4.479759    4.948698    0.309775
     37          1           0        5.882550    4.665330    1.092625
     38          1           0       -4.482102   -0.640873    1.452212
     39          1           0       -4.277229   -0.568949    3.200784
     40          1           0       -3.407248    0.562722    2.164533
     41          1           0       -2.001247   -4.691639    2.215918
     42          6           0       -1.827345   -3.617477    2.151359
     43          8           0        0.520423   -3.827473    1.884915
     44          6           0       -0.492167   -3.133694    1.975023
     45          1           0        0.544660   -1.379898    1.781398
     46          7           0       -0.383357   -1.759422    1.905742
     47          8           0       -1.206504    0.357061    1.915133
     48          6           0       -1.402096   -0.843431    1.987435
     49          1           0       -3.875201   -3.065277    2.368589
     50          6           0       -2.841699   -2.748684    2.234471
     51          6           0       -3.780427   -0.447031    2.249790
     52          7           0       -2.660108   -1.387282    2.157199
     53          1           0       -5.773897    4.245291   -2.066154
     54          1           0       -4.378123    4.176696   -1.224025
     55          1           0       -5.799501    4.330610   -0.436594
     56          1           0       -3.893850   -2.828927   -0.847023
     57          1           0       -5.514855   -2.300096   -0.899646
     58          7           0       -4.541421   -2.068482   -0.897017
     59          6           0       -4.126398   -0.801489   -0.957535
     60          6           0       -4.415443    1.556811   -1.086365
     61          7           0       -3.101954    1.838151   -1.081179
     62          1           0       -1.304627    0.856327   -1.001967
     63          6           0       -2.384979    0.718355   -1.011163
     64          7           0       -2.798782   -0.551549   -0.950475
     65          1           0       -7.593581    2.144394   -1.165834
     66          6           0       -6.603925    1.688337   -1.126683
     67          7           0       -6.379864    0.399002   -1.055239
     68          6           0       -4.996172    0.301833   -1.029011
     69          6           0       -5.343531    3.917634   -1.225076
     70          7           0       -5.460014    2.448386   -1.149332
 ---------------------------------------------------------------------

 SCF Done:  E(RwB97XD) =  -2048.74643409     A.U. after   15 cycles

 The electronic state is 1-A.
 Alpha  occ. eigenvalues --  -19.25236 -19.21313 -19.20566 -14.52563 -14.51822
 Alpha  occ. eigenvalues --  -14.49145 -14.48931 -14.48021 -14.47128 -14.46745
 Alpha  occ. eigenvalues --  -14.46532 -14.45504 -14.45000 -14.44837 -14.42947
 Alpha  occ. eigenvalues --  -14.42024 -14.41102 -14.40746 -14.40704 -14.40423
 Alpha  occ. eigenvalues --  -10.44822 -10.41177 -10.40567 -10.39421 -10.38182
 Alpha  occ. eigenvalues --  -10.38091 -10.37530 -10.37435 -10.36294 -10.35566
 Alpha  occ. eigenvalues --  -10.34446 -10.34405 -10.33931 -10.33524 -10.33455
 Alpha  occ. eigenvalues --  -10.33037 -10.32922 -10.32901 -10.31095 -10.30741
 Alpha  occ. eigenvalues --  -10.29965 -10.28223 -10.28168  -1.18782  -1.15367
 Alpha  occ. eigenvalues --   -1.13157  -1.12325  -1.10716  -1.10657  -1.09932
 Alpha  occ. eigenvalues --   -1.08715  -1.08492  -1.05435  -1.05065  -1.01787
 Alpha  occ. eigenvalues --   -1.01163  -1.00568  -0.99640  -0.98538  -0.97430
 Alpha  occ. eigenvalues --   -0.96698  -0.96405  -0.92755  -0.90597  -0.87921
 Alpha  occ. eigenvalues --   -0.86061  -0.84204  -0.83414  -0.82999  -0.82596
 Alpha  occ. eigenvalues --   -0.81690  -0.78348  -0.77447  -0.75254  -0.74646
 Alpha  occ. eigenvalues --   -0.73554  -0.72761  -0.72716  -0.70908  -0.70751
 Alpha  occ. eigenvalues --   -0.67345  -0.67274  -0.66148  -0.65989  -0.64648
 Alpha  occ. eigenvalues --   -0.64305  -0.63470  -0.62620  -0.62536  -0.61723
 Alpha  occ. eigenvalues --   -0.60930  -0.60584  -0.60010  -0.59688  -0.59101
 Alpha  occ. eigenvalues --   -0.59060  -0.58248  -0.56761  -0.56417  -0.55663
 Alpha  occ. eigenvalues --   -0.55599  -0.55472  -0.55403  -0.54901  -0.54077
 Alpha  occ. eigenvalues --   -0.53900  -0.53539  -0.53355  -0.53073  -0.52929
 Alpha  occ. eigenvalues --   -0.52463  -0.51887  -0.51205  -0.50351  -0.50228
 Alpha  occ. eigenvalues --   -0.50084  -0.49783  -0.49423  -0.48994  -0.48724
 Alpha  occ. eigenvalues --   -0.48649  -0.48027  -0.47837  -0.47679  -0.47100
 Alpha  occ. eigenvalues --   -0.46572  -0.45589  -0.45406  -0.44674  -0.43444
 Alpha  occ. eigenvalues --   -0.41085  -0.40976  -0.38952  -0.38149  -0.37944
 Alpha  occ. eigenvalues --   -0.37342  -0.37262  -0.36727  -0.35322  -0.35186
 Alpha  occ. eigenvalues --   -0.34868  -0.33993  -0.33250  -0.33135  -0.32887
 Alpha  occ. eigenvalues --   -0.32581  -0.32363  -0.31870  -0.31358  -0.30616
 Alpha  occ. eigenvalues --   -0.30479  -0.30223  -0.26056  -0.25221
 Alpha virt. eigenvalues --    0.03402   0.03771   0.06610   0.08158   0.08965
 Alpha virt. eigenvalues --    0.09293   0.09792   0.10352   0.11074   0.11319
 Alpha virt. eigenvalues --    0.13674   0.14462   0.14684   0.14726   0.14891

 Mulliken charges:
               1
     1  N   -0.312581
     2  C    0.184819
     3  C    0.061134
     4  N   -0.257724
     5  C    0.145364
     6  H    0.027726
     7  N   -0.293605
     8  C    0.125738
     9  H    0.013190
    10  N   -0.277179
    11  C    0.260698
    12  C    0.083521
    13  N   -0.071359
    14  H    0.112043
    15  H    0.082730
    16  H    0.019329
    17  H    0.032548
    18  H    0.033514
    19  N   -0.311391
    20  C    0.251179
    21  C    0.180973
    22  N   -0.121697
    23  H    0.120173
    24  H    0.117180
    25  N   -0.312105
    26  C    0.244322
    27  N   -0.140042
    28  H    0.118097
    29  C    0.181588
    30  O   -0.320541
    31  C   -0.003521
    32  N   -0.232768
    33  C    0.125015
    34  H    0.022764
    35  H    0.027342
    36  H    0.029642
    37  H    0.024970
    38  H    0.058421
    39  H    0.057674
    40  H    0.076263
    41  H    0.028167
    42  C   -0.115944
    43  O   -0.254175
    44  C    0.163525
    45  H    0.136767
    46  N   -0.124853
    47  O   -0.350081
    48  C    0.354722
    49  H    0.041245
    50  C    0.160379
    51  C    0.039040
    52  N   -0.280183
    53  H    0.034415
    54  H    0.039611
    55  H    0.030730
    56  H    0.117413
    57  H    0.120685
    58  N   -0.064005
    59  C    0.067033
    60  C    0.248877
    61  N   -0.276037
    62  H    0.028629
    63  C    0.182332
    64  N   -0.310914
    65  H    0.039796
    66  C    0.142903
    67  N   -0.260506
    68  C    0.029480
    69  C    0.180579
    70  N   -0.313075
 Sum of Mulliken charges =  -0.00000

 Dipole moment (field-independent basis, Debye):
    X=             -8.7698    Y=              6.0592    Z=             -0.5740  Tot=             10.6748
 Quadrupole moment (field-independent basis, Debye-Ang):
   XX=           -173.6508   YY=           -210.8588   ZZ=           -249.9019
   XY=              7.8545   XZ=            -18.4015   YZ=              4.8729

 Normal termination of Gaussian 16 at Thu Jan 25 21:22:45 2018.
