 Gaussian 16, Revision A.03,
 Gaussian 16:  EM64L-G16RevA.03 25-Dec-2016

 ---------------------------------------
 #p wb97xd/cc-pvdz sp scf=(maxcycles=20)
 ---------------------------------------

 ------------------
 Base pair stacking
 ------------------
 Symbolic Z-matrix:
 Charge =  0 Multiplicity = 1

                         Standard orientation:
 ---------------------------------------------------------------------
 Center     Atomic      Atomic             Coordinates (Angstroms)
 Number     Number       Type             X           Y           Z
 ---------------------------------------------------------------------
      1          7           0       -6.225646   -1.740870    0.718585
      2          6           0       -7.632385   -1.299531    0.784295
      3          6           0       -4.030951   -1.808536    0.845267
      4          7           0       -4.430063   -3.045818    0.360923
      5          6           0       -5.736311   -2.955520    0.303984
      6          1           0       -6.398631   -3.752240   -0.035908
      7          7           0       -2.715618   -0.003208    1.602638
      8          6           0       -3.862614    0.663260    1.769414
      9          1           0       -3.759473    1.678085    2.151188
     10          7           0       -5.112008    0.266203    1.536497
     11          6           0       -5.126675   -0.993548    1.070421
     12          6           0       -2.764000   -1.268660    1.132127
     13          7           0       -1.620122   -1.935557    0.964978
     14          1           0       -1.608452   -2.874449    0.619179
     15          1           0       -0.736303   -1.519677    1.179592
     16          1           0       -8.143450   -1.900833    1.398658
     17          1           0       -7.672576   -0.361691    1.127742
     18          1           0       -8.038335   -1.335980   -0.128867
     19          7           0       -2.725819    3.241894   -1.709779
     20          6           0       -1.446112    2.751822   -1.608672
     21          6           0       -3.104023    4.666499   -1.619438
     22          7           0        1.955850    3.293183   -1.166679
     23          1           0        2.790375    2.744717   -1.122244
     24          1           0        2.057244    4.282878   -1.062053
     25          7           0       -0.328170    3.483483   -1.411409
     26          6           0        0.754302    2.727832   -1.357933
     27          7           0        0.744839    1.360119   -1.487501
     28          1           0        1.620935    0.863644   -1.433400
     29          6           0       -0.393651    0.586642   -1.691055
     30          8           0       -0.292864   -0.642091   -1.794892
     31          6           0       -1.564451    1.384483   -1.750729
     32          7           0       -2.891755    1.023396   -1.937249
     33          6           0       -3.542221    2.154814   -1.905764
     34          1           0       -4.622180    2.253610   -2.020648
     35          1           0       -3.733626    4.798071   -0.854526
     36          1           0       -2.283970    5.218245   -1.473321
     37          1           0       -3.548021    4.949717   -2.468836
     38          1           0        6.215653   -1.069297   -0.430869
     39          1           0        6.326038   -1.172891   -2.186352
     40          1           0        5.391061    0.121748   -1.437267
     41          1           0        3.561198   -4.997282   -1.250263
     42          6           0        3.473397   -3.912991   -1.319763
     43          8           0        1.105910   -3.929823   -1.467646
     44          6           0        2.175470   -3.321674   -1.436276
     45          1           0        1.278293   -1.489637   -1.600799
     46          7           0        2.176940   -1.943752   -1.517493
     47          8           0        3.171133    0.097180   -1.575406
     48          6           0        3.270505   -1.114733   -1.497644
     49          1           0        5.568088   -3.530702   -1.210608
     50          6           0        4.558770   -3.130639   -1.297677
     51          6           0        5.683554   -0.914716   -1.357717
     52          7           0        4.486351   -1.759576   -1.383147
     53          1           0        3.944300    3.758596    3.646314
     54          1           0        2.739564    3.913076    2.556889
     55          1           0        4.294580    4.039517    2.077296
     56          1           0        1.915291   -2.926813    1.145517
     57          1           0        3.523389   -2.549195    1.571580
     58          7           0        2.585290   -2.236441    1.418707
     59          6           0        2.243983   -0.955422    1.572604
     60          6           0        2.644414    1.336052    2.073131
     61          7           0        1.377034    1.727426    1.861015
     62          1           0       -0.425833    0.920243    1.314456
     63          6           0        0.621279    0.690117    1.506436
     64          7           0        0.961246   -0.593656    1.351755
     65          1           0        5.774694    1.635052    2.824208
     66          6           0        4.786233    1.273665    2.539116
     67          7           0        4.502877    0.026655    2.252153
     68          6           0        3.147993    0.052329    1.954904
     69          6           0        3.668458    3.574063    2.702994
     70          7           0        3.708335    2.120476    2.450968
 ---------------------------------------------------------------------

 SCF Done:  E(RwB97XD) =  -2048.74385648     A.U. after   15 cycles

 The electronic state is 1-A.
 Alpha  occ. eigenvalues --  -19.26205 -19.22715 -19.20785 -14.52834 -14.51892
 Alpha  occ. eigenvalues --  -14.48892 -14.48232 -14.48100 -14.47622 -14.47133
 Alpha  occ. eigenvalues --  -14.47025 -14.44970 -14.43609 -14.43582 -14.42222
 Alpha  occ. eigenvalues --  -14.41612 -14.40908 -14.40866 -14.40326 -14.39630
 Alpha  occ. eigenvalues --  -10.45819 -10.41448 -10.40696 -10.39281 -10.38385
 Alpha  occ. eigenvalues --  -10.38344 -10.37483 -10.36533 -10.35294 -10.35034
 Alpha  occ. eigenvalues --  -10.34833 -10.34489 -10.33546 -10.33485 -10.33357
 Alpha  occ. eigenvalues --  -10.32789 -10.32539 -10.32060 -10.31654 -10.31027
 Alpha  occ. eigenvalues --  -10.30540 -10.28244 -10.27944  -1.19773  -1.14605
 Alpha  occ. eigenvalues --   -1.13661  -1.13384  -1.10793  -1.10715  -1.09726
 Alpha  occ. eigenvalues --   -1.08769  -1.08648  -1.04416  -1.04223  -1.02860
 Alpha  occ. eigenvalues --   -1.00431  -1.00025  -0.99843  -0.98711  -0.96704
 Alpha  occ. eigenvalues --   -0.96464  -0.96124  -0.92065  -0.91543  -0.87027
 Alpha  occ. eigenvalues --   -0.85390  -0.84251  -0.83866  -0.83409  -0.82634
 Alpha  occ. eigenvalues --   -0.81807  -0.79325  -0.76447  -0.74787  -0.74163
 Alpha  occ. eigenvalues --   -0.73897  -0.73720  -0.72354  -0.70500  -0.69853
 Alpha  occ. eigenvalues --   -0.67601  -0.66902  -0.66241  -0.65754  -0.64772
 Alpha  occ. eigenvalues --   -0.63993  -0.63717  -0.62882  -0.62150  -0.61958
 Alpha  occ. eigenvalues --   -0.60163  -0.59968  -0.59885  -0.59847  -0.59178
 Alpha  occ. eigenvalues --   -0.58912  -0.58644  -0.56752  -0.56267  -0.56056
 Alpha  occ. eigenvalues --   -0.55905  -0.54947  -0.54769  -0.54730  -0.54484
 Alpha  occ. eigenvalues --   -0.53879  -0.53704  -0.53165  -0.53132  -0.52978
 Alpha  occ. eigenvalues --   -0.52666  -0.52217  -0.51288  -0.50394  -0.50192
 Alpha  occ. eigenvalues --   -0.49784  -0.49703  -0.49269  -0.49191  -0.48797
 Alpha  occ. eigenvalues --   -0.48551  -0.48450  -0.48281  -0.47887  -0.47596
 Alpha  occ. eigenvalues --   -0.46421  -0.45741  -0.44508  -0.44417  -0.44245
 Alpha  occ. eigenvalues --   -0.40554  -0.40104  -0.39733  -0.37517  -0.37420
 Alpha  occ. eigenvalues --   -0.37390  -0.36887  -0.36612  -0.36040  -0.34492
 Alpha  occ. eigenvalues --   -0.34056  -0.33805  -0.33606  -0.33024  -0.32936
 Alpha  occ. eigenvalues --   -0.32707  -0.32557  -0.32445  -0.31948  -0.30349
 Alpha  occ. eigenvalues --   -0.29869  -0.29422  -0.25724  -0.25065
 Alpha virt. eigenvalues --    0.02408   0.04617   0.07502   0.08280   0.08589
 Alpha virt. eigenvalues --    0.09036   0.09553   0.11112   0.11657   0.11781
 Alpha virt. eigenvalues --    0.12428   0.14358   0.14401   0.14868   0.15182

 Mulliken charges:
               1
     1  N   -0.311861
     2  C    0.181293
     3  C    0.039751
     4  N   -0.258239
     5  C    0.133384
     6  H    0.024634
     7  N   -0.297210
     8  C    0.139404
     9  H    0.007376
    10  N   -0.293181
    11  C    0.247145
    12  C    0.121758
    13  N   -0.053429
    14  H    0.112697
    15  H    0.087883
    16  H    0.023977
    17  H    0.033142
    18  H    0.025295
    19  N   -0.312608
    20  C    0.249200
    21  C    0.181109
    22  N   -0.119130
    23  H    0.114820
    24  H    0.115683
    25  N   -0.307891
    26  C    0.241165
    27  N   -0.140314
    28  H    0.114049
    29  C    0.176093
    30  O   -0.319270
    31  C   -0.001860
    32  N   -0.224802
    33  C    0.130502
    34  H    0.027722
    35  H    0.029147
    36  H    0.028396
    37  H    0.024991
    38  H    0.064932
    39  H    0.058654
    40  H    0.074749
    41  H    0.032556
    42  C   -0.107202
    43  O   -0.263620
    44  C    0.139644
    45  H    0.134900
    46  N   -0.114565
    47  O   -0.344994
    48  C    0.345822
    49  H    0.049880
    50  C    0.159723
    51  C    0.042019
    52  N   -0.283950
    53  H    0.033372
    54  H    0.044014
    55  H    0.022953
    56  H    0.130579
    57  H    0.114577
    58  N   -0.066701
    59  C    0.080434
    60  C    0.237120
    61  N   -0.264303
    62  H    0.041675
    63  C    0.168038
    64  N   -0.304727
    65  H    0.033810
    66  C    0.136307
    67  N   -0.270473
    68  C    0.038379
    69  C    0.178652
    70  N   -0.313077
 Sum of Mulliken charges =  -0.00000

 Dipole moment (field-independent basis, Debye):
    X=              9.3630    Y=              5.3959    Z=              1.0859  Tot=             10.8610
 Quadrupole moment (field-independent basis, Debye-Ang):
   XX=           -158.1511   YY=           -212.1697   ZZ=           -250.3692
   XY=             -4.5126   XZ=              3.5457   YZ=             -3.7613

 Normal termination of Gaussian 16 at Fri Jan 26 04:09:24 2018.
