 Gaussian 16, Revision A.03,
 Gaussian 16:  EM64L-G16RevA.03 25-Dec-2016

 ---------------------------------------
 #p wb97xd/cc-pvdz sp scf=(maxcycles=20)
 ---------------------------------------

 ------------------
 Base pair stacking
 ------------------
 Symbolic Z-matrix:
 Charge =  0 Multiplicity = 1

                         Standard orientation:
 ---------------------------------------------------------------------
 Center     Atomic      Atomic             Coordinates (Angstroms)
 Number     Number       Type             X           Y           Z
 ---------------------------------------------------------------------
      1          7           0        4.293343   -2.032653   -1.803272
      2          6           0        5.713155   -1.641601   -1.899349
      3          6           0        2.099957   -1.981288   -1.649211
      4          7           0        2.455160   -3.321899   -1.685621
      5          6           0        3.762374   -3.299185   -1.776974
      6          1           0        4.395734   -4.185243   -1.828949
      7          7           0        0.849926    0.016061   -1.544487
      8          6           0        2.018295    0.661565   -1.620760
      9          1           0        1.950794    1.748533   -1.606690
     10          7           0        3.251724    0.168278   -1.711389
     11          6           0        3.222336   -1.174657   -1.720878
     12          6           0        0.853999   -1.334839   -1.556388
     13          7           0       -0.311272   -1.980994   -1.480329
     14          1           0       -0.355737   -2.980605   -1.485813
     15          1           0       -1.179077   -1.488200   -1.415312
     16          1           0        6.102494   -2.000541   -2.747738
     17          1           0        5.786058   -0.644709   -1.895888
     18          1           0        6.217009   -2.013681   -1.119806
     19          7           0        4.798552    2.885410    0.660597
     20          6           0        3.488654    2.483680    0.764650
     21          6           0        5.248557    4.239549    0.280447
     22          7           0        0.097054    3.195952    0.537757
     23          1           0       -0.768409    2.713023    0.668092
     24          1           0        0.043796    4.156983    0.265193
     25          7           0        2.401313    3.252308    0.538898
     26          6           0        1.276554    2.583206    0.720036
     27          7           0        1.218868    1.262379    1.093671
     28          1           0        0.314189    0.831964    1.208855
     29          6           0        2.324785    0.452237    1.331313
     30          8           0        2.163148   -0.728286    1.664451
     31          6           0        3.540376    1.157140    1.140705
     32          7           0        4.856280    0.734577    1.270145
     33          6           0        5.565440    1.790509    0.976370
     34          1           0        6.655410    1.825657    0.974505
     35          1           0        5.803935    4.187482   -0.548805
     36          1           0        4.451694    4.817890    0.110742
     37          1           0        5.792287    4.632164    1.021404
     38          1           0       -4.463968   -0.892260    0.987445
     39          1           0       -4.401566   -0.679210    2.735406
     40          1           0       -3.473093    0.390137    1.683841
     41          1           0       -1.975110   -4.806738    2.263807
     42          6           0       -1.817250   -3.736784    2.127753
     43          8           0        0.547938   -3.907001    2.064073
     44          6           0       -0.481763   -3.234334    2.018840
     45          1           0        0.533397   -1.475091    1.768169
     46          7           0       -0.394151   -1.867314    1.849088
     47          8           0       -1.255879    0.221823    1.625205
     48          6           0       -1.433547   -0.973991    1.777307
     49          1           0       -3.886152   -3.221696    2.138830
     50          6           0       -2.851488   -2.890285    2.061496
     51          6           0       -3.832441   -0.619090    1.819689
     52          7           0       -2.690464   -1.534845    1.890539
     53          1           0       -5.689672    4.467757   -1.230890
     54          1           0       -4.359751    4.185937   -0.328673
     55          1           0       -5.835154    4.182442    0.369382
     56          1           0       -3.910026   -2.730562   -1.518296
     57          1           0       -5.522339   -2.175295   -1.565325
     58          7           0       -4.551565   -1.967326   -1.440544
     59          6           0       -4.132225   -0.726971   -1.181996
     60          6           0       -4.409155    1.603959   -0.792419
     61          7           0       -3.099389    1.853825   -0.629535
     62          1           0       -1.313556    0.848298   -0.646907
     63          6           0       -2.390391    0.734889   -0.764453
     64          7           0       -2.808538   -0.508363   -1.023418
     65          1           0       -7.572351    2.249730   -0.963582
     66          6           0       -6.588623    1.779420   -0.958288
     67          7           0       -6.371431    0.503668   -1.165578
     68          6           0       -4.993509    0.378910   -1.063168
     69          6           0       -5.322665    3.950757   -0.457582
     70          7           0       -5.445558    2.504759   -0.725900
 ---------------------------------------------------------------------

 SCF Done:  E(RwB97XD) =  -2048.73862318     A.U. after   15 cycles

 The electronic state is 1-A.
 Alpha  occ. eigenvalues --  -19.25040 -19.21082 -19.20453 -14.52771 -14.51614
 Alpha  occ. eigenvalues --  -14.49409 -14.48717 -14.48343 -14.46995 -14.46380
 Alpha  occ. eigenvalues --  -14.46201 -14.45679 -14.45191 -14.45128 -14.43340
 Alpha  occ. eigenvalues --  -14.41875 -14.41144 -14.41009 -14.40886 -14.40644
 Alpha  occ. eigenvalues --  -10.44624 -10.40889 -10.40812 -10.39218 -10.38231
 Alpha  occ. eigenvalues --  -10.37947 -10.37807 -10.37136 -10.36593 -10.35906
 Alpha  occ. eigenvalues --  -10.34124 -10.34089 -10.34045 -10.33832 -10.33347
 Alpha  occ. eigenvalues --  -10.33229 -10.33194 -10.33036 -10.30952 -10.30467
 Alpha  occ. eigenvalues --  -10.30111 -10.28572 -10.27901  -1.18689  -1.15583
 Alpha  occ. eigenvalues --   -1.12980  -1.12123  -1.11044  -1.10453  -1.10223
 Alpha  occ. eigenvalues --   -1.08529  -1.08292  -1.05738  -1.05401  -1.01622
 Alpha  occ. eigenvalues --   -1.01357  -1.00930  -0.99361  -0.98332  -0.97722
 Alpha  occ. eigenvalues --   -0.96751  -0.96491  -0.93076  -0.90340  -0.88185
 Alpha  occ. eigenvalues --   -0.86273  -0.84000  -0.83732  -0.82811  -0.82400
 Alpha  occ. eigenvalues --   -0.81940  -0.78131  -0.77693  -0.75556  -0.74431
 Alpha  occ. eigenvalues --   -0.73299  -0.73102  -0.72558  -0.71227  -0.71044
 Alpha  occ. eigenvalues --   -0.67568  -0.67066  -0.66480  -0.65808  -0.64896
 Alpha  occ. eigenvalues --   -0.64100  -0.63329  -0.62957  -0.62384  -0.61474
 Alpha  occ. eigenvalues --   -0.61150  -0.60873  -0.60320  -0.60038  -0.59150
 Alpha  occ. eigenvalues --   -0.58850  -0.57961  -0.57057  -0.56466  -0.56015
 Alpha  occ. eigenvalues --   -0.55715  -0.55697  -0.55561  -0.55173  -0.54107
 Alpha  occ. eigenvalues --   -0.53833  -0.53736  -0.53267  -0.53120  -0.52758
 Alpha  occ. eigenvalues --   -0.52261  -0.51773  -0.51452  -0.50543  -0.50524
 Alpha  occ. eigenvalues --   -0.49966  -0.49854  -0.49321  -0.48941  -0.48892
 Alpha  occ. eigenvalues --   -0.48546  -0.47845  -0.47718  -0.47503  -0.46951
 Alpha  occ. eigenvalues --   -0.46809  -0.45646  -0.45234  -0.44574  -0.43146
 Alpha  occ. eigenvalues --   -0.41326  -0.41187  -0.38921  -0.38290  -0.38198
 Alpha  occ. eigenvalues --   -0.37457  -0.37114  -0.36775  -0.35574  -0.35246
 Alpha  occ. eigenvalues --   -0.35050  -0.34189  -0.33600  -0.33236  -0.32730
 Alpha  occ. eigenvalues --   -0.32518  -0.32196  -0.31705  -0.31084  -0.30748
 Alpha  occ. eigenvalues --   -0.30626  -0.30219  -0.26520  -0.24812
 Alpha virt. eigenvalues --    0.03412   0.03756   0.06467   0.07857   0.09050
 Alpha virt. eigenvalues --    0.09354   0.09799   0.10206   0.10871   0.11480
 Alpha virt. eigenvalues --    0.13595   0.14431   0.14510   0.14630   0.15063

 Mulliken charges:
               1
     1  N   -0.312907
     2  C    0.186003
     3  C    0.065071
     4  N   -0.264406
     5  C    0.145027
     6  H    0.028385
     7  N   -0.282771
     8  C    0.110539
     9  H    0.024353
    10  N   -0.264450
    11  C    0.260201
    12  C    0.075732
    13  N   -0.071926
    14  H    0.107460
    15  H    0.083118
    16  H    0.019018
    17  H    0.032987
    18  H    0.034419
    19  N   -0.310122
    20  C    0.241437
    21  C    0.181368
    22  N   -0.105794
    23  H    0.118094
    24  H    0.115389
    25  N   -0.299313
    26  C    0.198592
    27  N   -0.107864
    28  H    0.116275
    29  C    0.147880
    30  O   -0.318028
    31  C    0.025219
    32  N   -0.232108
    33  C    0.121147
    34  H    0.021332
    35  H    0.026508
    36  H    0.029005
    37  H    0.024409
    38  H    0.060558
    39  H    0.054851
    40  H    0.078057
    41  H    0.028260
    42  C   -0.114154
    43  O   -0.260443
    44  C    0.177346
    45  H    0.136277
    46  N   -0.129811
    47  O   -0.346206
    48  C    0.355159
    49  H    0.042406
    50  C    0.162506
    51  C    0.037744
    52  N   -0.280263
    53  H    0.034691
    54  H    0.037204
    55  H    0.032470
    56  H    0.117890
    57  H    0.121902
    58  N   -0.059344
    59  C    0.047218
    60  C    0.244933
    61  N   -0.279858
    62  H    0.005009
    63  C    0.201396
    64  N   -0.302512
    65  H    0.040436
    66  C    0.142164
    67  N   -0.257958
    68  C    0.034936
    69  C    0.181379
    70  N   -0.313523
 Sum of Mulliken charges =  -0.00000

 Dipole moment (field-independent basis, Debye):
    X=             -8.8868    Y=              5.6795    Z=             -2.0026  Tot=             10.7351
 Quadrupole moment (field-independent basis, Debye-Ang):
   XX=           -172.9509   YY=           -213.1106   ZZ=           -252.4902
   XY=              9.1513   XZ=            -19.4539   YZ=              9.7438

 Normal termination of Gaussian 16 at Fri Jan 26 12:05:25 2018.
