 Gaussian 16, Revision A.03,
 Gaussian 16:  EM64L-G16RevA.03 25-Dec-2016

 ---------------------------------------
 #p wb97xd/cc-pvdz sp scf=(maxcycles=20)
 ---------------------------------------

 ------------------
 Base pair stacking
 ------------------
 Symbolic Z-matrix:
 Charge =  0 Multiplicity = 1

                         Standard orientation:
 ---------------------------------------------------------------------
 Center     Atomic      Atomic             Coordinates (Angstroms)
 Number     Number       Type             X           Y           Z
 ---------------------------------------------------------------------
      1          7           0       -5.296745   -2.079880    1.370264
      2          6           0       -6.700175   -1.701031    1.624887
      3          6           0       -3.101694   -2.062496    1.233325
      4          7           0       -3.511951   -3.290257    0.734292
      5          6           0       -4.817970   -3.251587    0.836759
      6          1           0       -5.487635   -4.057635    0.535463
      7          7           0       -1.769772   -0.243100    1.925230
      8          6           0       -2.911353    0.366292    2.261394
      9          1           0       -2.799166    1.364757    2.681800
     10          7           0       -4.164822   -0.070478    2.156717
     11          6           0       -4.190668   -1.305598    1.629243
     12          6           0       -1.829399   -1.485081    1.397033
     13          7           0       -0.690927   -2.095023    1.060821
     14          1           0       -0.687578   -3.014685    0.666582
     15          1           0        0.196958   -1.653750    1.191488
     16          1           0       -7.112239   -2.352189    2.262367
     17          1           0       -6.732066   -0.783479    2.020102
     18          1           0       -7.211195   -1.709849    0.765365
     19          7           0       -3.775757    3.255833   -1.217484
     20          6           0       -2.476616    2.814967   -1.294301
     21          6           0       -4.190610    4.657435   -1.007466
     22          7           0        0.932479    3.474915   -1.228598
     23          1           0        1.785215    2.960035   -1.312193
     24          1           0        1.010578    4.461696   -1.084139
     25          7           0       -1.369692    3.581937   -1.191659
     26          6           0       -0.262544    2.870146   -1.306568
     27          7           0       -0.239047    1.511137   -1.506724
     28          1           0        0.654252    1.049417   -1.582872
     29          6           0       -1.365621    0.701901   -1.615407
     30          8           0       -1.234565   -0.515095   -1.795659
     31          6           0       -2.562641    1.452412   -1.493974
     32          7           0       -3.889109    1.046058   -1.541540
     33          6           0       -4.570760    2.146635   -1.373355
     34          1           0       -5.659518    2.205986   -1.354594
     35          1           0       -4.728173    4.725422   -0.167692
     36          1           0       -3.379007    5.234980   -0.929958
     37          1           0       -4.743039    4.962951   -1.782250
     38          1           0        5.401594   -0.737642   -1.233767
     39          1           0        5.304202   -0.751068   -2.993020
     40          1           0        4.420585    0.465684   -2.071018
     41          1           0        2.808814   -4.727911   -1.942143
     42          6           0        2.674953   -3.646103   -1.942996
     43          8           0        0.308925   -3.753963   -1.811191
     44          6           0        1.352311   -3.104185   -1.873912
     45          1           0        0.377563   -1.305140   -1.833687
     46          7           0        1.295228   -1.725082   -1.881280
     47          8           0        2.202377    0.355762   -1.947378
     48          6           0        2.353217   -0.853339   -1.946498
     49          1           0        4.752752   -3.182960   -2.061549
     50          6           0        3.726757   -2.821379   -2.007508
     51          6           0        4.757030   -0.560389   -2.081812
     52          7           0        3.596088   -1.451971   -2.010738
     53          1           0        4.949778    3.688028    3.366140
     54          1           0        3.618351    3.845169    2.436244
     55          1           0        5.099150    4.059220    1.783953
     56          1           0        2.873477   -2.946305    0.769953
     57          1           0        4.506682   -2.523439    1.022796
     58          7           0        3.546537   -2.242823    0.998548
     59          6           0        3.181013   -0.986073    1.259599
     60          6           0        3.557184    1.292992    1.830622
     61          7           0        2.260442    1.641281    1.790657
     62          1           0        0.434757    0.787505    1.418448
     63          6           0        1.504828    0.591972    1.473029
     64          7           0        1.869033   -0.667545    1.211201
     65          1           0        6.742382    1.684779    2.221975
     66          6           0        5.740282    1.296961    2.036663
     67          7           0        5.468891    0.054697    1.719175
     68          6           0        4.088081    0.038543    1.585651
     69          6           0        4.569482    3.538296    2.453479
     70          7           0        4.630284    2.101592    2.121504
 ---------------------------------------------------------------------

 SCF Done:  E(RwB97XD) =  -2048.74446773     A.U. after   15 cycles

 The electronic state is 1-A.
 Alpha  occ. eigenvalues --  -19.25876 -19.22290 -19.20647 -14.52559 -14.52309
 Alpha  occ. eigenvalues --  -14.48898 -14.48397 -14.47928 -14.47867 -14.47010
 Alpha  occ. eigenvalues --  -14.46768 -14.45371 -14.44332 -14.44240 -14.42117
 Alpha  occ. eigenvalues --  -14.41706 -14.40955 -14.40468 -14.40173 -14.39663
 Alpha  occ. eigenvalues --  -10.45556 -10.41339 -10.40403 -10.39965 -10.38283
 Alpha  occ. eigenvalues --  -10.38239 -10.37910 -10.37100 -10.35646 -10.35112
 Alpha  occ. eigenvalues --  -10.34784 -10.34435 -10.33742 -10.33397 -10.33202
 Alpha  occ. eigenvalues --  -10.32630 -10.32526 -10.32398 -10.31462 -10.31052
 Alpha  occ. eigenvalues --  -10.30191 -10.28189 -10.27706  -1.19480  -1.15070
 Alpha  occ. eigenvalues --   -1.13289  -1.13261  -1.10674  -1.10453  -1.09545
 Alpha  occ. eigenvalues --   -1.09251  -1.08639  -1.04864  -1.04337  -1.02600
 Alpha  occ. eigenvalues --   -1.00892  -0.99838  -0.99755  -0.98633  -0.96850
 Alpha  occ. eigenvalues --   -0.96695  -0.96103  -0.92020  -0.91393  -0.87520
 Alpha  occ. eigenvalues --   -0.85780  -0.84213  -0.83665  -0.83121  -0.82613
 Alpha  occ. eigenvalues --   -0.81535  -0.79125  -0.76994  -0.74781  -0.74703
 Alpha  occ. eigenvalues --   -0.73743  -0.73492  -0.72196  -0.70436  -0.70272
 Alpha  occ. eigenvalues --   -0.67479  -0.66837  -0.66696  -0.65591  -0.64622
 Alpha  occ. eigenvalues --   -0.64236  -0.63905  -0.62758  -0.62002  -0.61846
 Alpha  occ. eigenvalues --   -0.60557  -0.60152  -0.60051  -0.59707  -0.59364
 Alpha  occ. eigenvalues --   -0.59164  -0.58459  -0.56726  -0.56066  -0.55932
 Alpha  occ. eigenvalues --   -0.55530  -0.55186  -0.54828  -0.54565  -0.54193
 Alpha  occ. eigenvalues --   -0.53780  -0.53703  -0.53481  -0.53275  -0.53080
 Alpha  occ. eigenvalues --   -0.52711  -0.52503  -0.51036  -0.50299  -0.49981
 Alpha  occ. eigenvalues --   -0.49794  -0.49610  -0.49420  -0.49189  -0.48984
 Alpha  occ. eigenvalues --   -0.48493  -0.48325  -0.48203  -0.47805  -0.47420
 Alpha  occ. eigenvalues --   -0.46215  -0.45750  -0.45402  -0.44178  -0.43906
 Alpha  occ. eigenvalues --   -0.40604  -0.40405  -0.39479  -0.37601  -0.37503
 Alpha  occ. eigenvalues --   -0.37371  -0.37342  -0.36351  -0.35958  -0.34770
 Alpha  occ. eigenvalues --   -0.34333  -0.34001  -0.33422  -0.32775  -0.32761
 Alpha  occ. eigenvalues --   -0.32720  -0.32486  -0.32306  -0.31941  -0.30169
 Alpha  occ. eigenvalues --   -0.30061  -0.29738  -0.25592  -0.25027
 Alpha virt. eigenvalues --    0.02274   0.04338   0.07003   0.08377   0.08801
 Alpha virt. eigenvalues --    0.09164   0.09702   0.10630   0.11283   0.11746
 Alpha virt. eigenvalues --    0.13054   0.14468   0.14591   0.14866   0.15157

 Mulliken charges:
               1
     1  N   -0.313090
     2  C    0.182238
     3  C    0.047116
     4  N   -0.255992
     5  C    0.137619
     6  H    0.024516
     7  N   -0.301675
     8  C    0.137653
     9  H    0.007998
    10  N   -0.289647
    11  C    0.258267
    12  C    0.110482
    13  N   -0.063060
    14  H    0.113499
    15  H    0.081864
    16  H    0.022185
    17  H    0.032066
    18  H    0.026863
    19  N   -0.311801
    20  C    0.249572
    21  C    0.180748
    22  N   -0.118788
    23  H    0.114418
    24  H    0.116524
    25  N   -0.311202
    26  C    0.246002
    27  N   -0.151409
    28  H    0.121642
    29  C    0.197619
    30  O   -0.321159
    31  C   -0.014579
    32  N   -0.226250
    33  C    0.130396
    34  H    0.023920
    35  H    0.028566
    36  H    0.028997
    37  H    0.024883
    38  H    0.058679
    39  H    0.060411
    40  H    0.074784
    41  H    0.031114
    42  C   -0.122748
    43  O   -0.262699
    44  C    0.168616
    45  H    0.132241
    46  N   -0.119998
    47  O   -0.345001
    48  C    0.341086
    49  H    0.045181
    50  C    0.157888
    51  C    0.038940
    52  N   -0.274512
    53  H    0.034258
    54  H    0.042396
    55  H    0.027749
    56  H    0.118434
    57  H    0.114291
    58  N   -0.057675
    59  C    0.092902
    60  C    0.249273
    61  N   -0.272662
    62  H    0.039338
    63  C    0.172517
    64  N   -0.313884
    65  H    0.037741
    66  C    0.139362
    67  N   -0.269929
    68  C    0.028786
    69  C    0.179327
    70  N   -0.313213
 Sum of Mulliken charges =  -0.00000

 Dipole moment (field-independent basis, Debye):
    X=              9.2237    Y=              5.8713    Z=              0.3869  Tot=             10.9407
 Quadrupole moment (field-independent basis, Debye-Ang):
   XX=           -165.0706   YY=           -211.2523   ZZ=           -249.9315
   XY=             -5.6192   XZ=             -7.7765   YZ=             -1.0805

 Normal termination of Gaussian 16 at Fri Jan 26 05:06:01 2018.
