 Gaussian 16, Revision A.03,
 Gaussian 16:  EM64L-G16RevA.03 25-Dec-2016

 ---------------------------------------
 #p wb97xd/cc-pvdz sp scf=(maxcycles=20)
 ---------------------------------------

 ------------------
 Base pair stacking
 ------------------
 Symbolic Z-matrix:
 Charge =  0 Multiplicity = 1

                         Standard orientation:
 ---------------------------------------------------------------------
 Center     Atomic      Atomic             Coordinates (Angstroms)
 Number     Number       Type             X           Y           Z
 ---------------------------------------------------------------------
      1          7           0        5.272978   -2.002331   -1.407011
      2          6           0        6.680710   -1.592908   -1.576302
      3          6           0        3.075233   -2.003971   -1.322007
      4          7           0        3.477911   -3.285969   -0.976972
      5          6           0        4.785850   -3.233674   -1.041993
      6          1           0        5.451056   -4.071713   -0.831897
      7          7           0        1.753629   -0.110729   -1.803605
      8          6           0        2.900697    0.537745   -2.030089
      9          1           0        2.794959    1.582333   -2.319782
     10          7           0        4.152880    0.091695   -1.952822
     11          6           0        4.170603   -1.201494   -1.589827
     12          6           0        1.805131   -1.410807   -1.439965
     13          7           0        0.661179   -2.059827   -1.213437
     14          1           0        0.651749   -3.022934   -0.942230
     15          1           0       -0.224930   -1.605738   -1.307050
     16          1           0        7.110233   -2.155482   -2.282850
     17          1           0        6.718706   -0.631752   -1.848063
     18          1           0        7.171096   -1.713119   -0.713129
     19          7           0        3.813931    3.153289    1.230383
     20          6           0        2.512457    2.714747    1.273846
     21          6           0        4.237175    4.549219    1.000314
     22          7           0       -0.891733    3.373729    1.076355
     23          1           0       -1.747367    2.861271    1.143548
     24          1           0       -0.963829    4.356695    0.905210
     25          7           0        1.410478    3.479246    1.114948
     26          6           0        0.299309    2.770763    1.209620
     27          7           0        0.267561    1.417073    1.442071
     28          1           0       -0.628292    0.957574    1.499145
     29          6           0        1.388938    0.610460    1.608706
     30          8           0        1.250533   -0.601715    1.814147
     31          6           0        2.590190    1.357485    1.509623
     32          7           0        3.913839    0.952091    1.612111
     33          6           0        4.601997    2.048047    1.440256
     34          1           0        5.690825    2.106653    1.457009
     35          1           0        4.802994    4.596477    0.177860
     36          1           0        3.429297    5.124899    0.881198
     37          1           0        4.763338    4.873495    1.785680
     38          1           0       -5.362986   -0.836333    1.032994
     39          1           0       -5.325336   -0.806671    2.794346
     40          1           0       -4.409646    0.386901    1.873354
     41          1           0       -2.800016   -4.808684    1.926439
     42          6           0       -2.665106   -3.727206    1.905339
     43          8           0       -0.296083   -3.838846    1.856582
     44          6           0       -1.340297   -3.187476    1.867929
     45          1           0       -0.362810   -1.390197    1.816773
     46          7           0       -1.282008   -1.808615    1.843472
     47          8           0       -2.188648    0.273436    1.827792
     48          6           0       -2.340667   -0.935281    1.851390
     49          1           0       -4.745238   -3.260793    1.941945
     50          6           0       -3.717601   -2.900895    1.913919
     51          6           0       -4.747370   -0.638509    1.897832
     52          7           0       -3.585642   -1.531848    1.888045
     53          1           0       -4.943813    3.971045   -2.883320
     54          1           0       -3.635536    4.006635   -1.909023
     55          1           0       -5.132255    4.133353   -1.270385
     56          1           0       -2.906047   -2.943437   -1.121772
     57          1           0       -4.534275   -2.492098   -1.356871
     58          7           0       -3.576005   -2.216542   -1.273202
     59          6           0       -3.208909   -0.936340   -1.359853
     60          6           0       -3.579595    1.397428   -1.638835
     61          7           0       -2.285456    1.738199   -1.522665
     62          1           0       -0.466093    0.844185   -1.220580
     63          6           0       -1.533836    0.656880   -1.325909
     64          7           0       -1.899624   -0.626163   -1.238819
     65          1           0       -6.755955    1.835188   -2.052740
     66          6           0       -5.757158    1.427069   -1.895254
     67          7           0       -5.488930    0.154211   -1.735403
     68          6           0       -4.111642    0.121509   -1.571816
     69          6           0       -4.584872    3.704135   -1.988940
     70          7           0       -4.648372    2.236446   -1.848003
 ---------------------------------------------------------------------

 SCF Done:  E(RwB97XD) =  -2048.74744010     A.U. after   15 cycles

 The electronic state is 1-A.
 Alpha  occ. eigenvalues --  -19.25643 -19.21956 -19.20505 -14.52493 -14.52336
 Alpha  occ. eigenvalues --  -14.48769 -14.48607 -14.48031 -14.47675 -14.46823
 Alpha  occ. eigenvalues --  -14.46477 -14.45521 -14.44494 -14.44457 -14.42070
 Alpha  occ. eigenvalues --  -14.41941 -14.40824 -14.40671 -14.40356 -14.39877
 Alpha  occ. eigenvalues --  -10.45322 -10.41135 -10.40150 -10.40080 -10.38139
 Alpha  occ. eigenvalues --  -10.38068 -10.37948 -10.37285 -10.35840 -10.35036
 Alpha  occ. eigenvalues --  -10.34919 -10.34288 -10.33953 -10.33393 -10.33274
 Alpha  occ. eigenvalues --  -10.32796 -10.32709 -10.32577 -10.31221 -10.30952
 Alpha  occ. eigenvalues --  -10.30297 -10.28035 -10.27913  -1.19257  -1.15247
 Alpha  occ. eigenvalues --   -1.13112  -1.12952  -1.10630  -1.10535  -1.09508
 Alpha  occ. eigenvalues --   -1.09210  -1.08450  -1.05041  -1.04558  -1.02337
 Alpha  occ. eigenvalues --   -1.01063  -1.00008  -0.99594  -0.98473  -0.97030
 Alpha  occ. eigenvalues --   -0.96556  -0.96300  -0.92248  -0.91111  -0.87700
 Alpha  occ. eigenvalues --   -0.85974  -0.84062  -0.83449  -0.83291  -0.82482
 Alpha  occ. eigenvalues --   -0.81701  -0.78864  -0.77160  -0.74963  -0.74552
 Alpha  occ. eigenvalues --   -0.73537  -0.73238  -0.72409  -0.70612  -0.70462
 Alpha  occ. eigenvalues --   -0.67279  -0.67001  -0.66452  -0.65809  -0.64467
 Alpha  occ. eigenvalues --   -0.64351  -0.63725  -0.62601  -0.62233  -0.61645
 Alpha  occ. eigenvalues --   -0.60687  -0.60296  -0.60097  -0.59510  -0.59370
 Alpha  occ. eigenvalues --   -0.59345  -0.58219  -0.56629  -0.56138  -0.55861
 Alpha  occ. eigenvalues --   -0.55654  -0.55391  -0.55054  -0.54482  -0.54191
 Alpha  occ. eigenvalues --   -0.53841  -0.53603  -0.53457  -0.53120  -0.52926
 Alpha  occ. eigenvalues --   -0.52829  -0.52283  -0.51194  -0.50187  -0.50089
 Alpha  occ. eigenvalues --   -0.49964  -0.49615  -0.49473  -0.49252  -0.48774
 Alpha  occ. eigenvalues --   -0.48426  -0.48294  -0.48081  -0.47635  -0.47251
 Alpha  occ. eigenvalues --   -0.46384  -0.45677  -0.45375  -0.44264  -0.43817
 Alpha  occ. eigenvalues --   -0.40815  -0.40623  -0.39277  -0.37800  -0.37680
 Alpha  occ. eigenvalues --   -0.37217  -0.37170  -0.36532  -0.35695  -0.34936
 Alpha  occ. eigenvalues --   -0.34545  -0.33756  -0.33163  -0.32970  -0.32868
 Alpha  occ. eigenvalues --   -0.32602  -0.32374  -0.32048  -0.31807  -0.30358
 Alpha  occ. eigenvalues --   -0.30243  -0.29936  -0.25437  -0.25229
 Alpha virt. eigenvalues --    0.02582   0.04245   0.06747   0.08500   0.08748
 Alpha virt. eigenvalues --    0.09287   0.09861   0.10463   0.11351   0.11530
 Alpha virt. eigenvalues --    0.12750   0.14337   0.14624   0.14983   0.15069

 Mulliken charges:
               1
     1  N   -0.313168
     2  C    0.182538
     3  C    0.047681
     4  N   -0.258202
     5  C    0.138302
     6  H    0.025276
     7  N   -0.300207
     8  C    0.137506
     9  H    0.008987
    10  N   -0.287046
    11  C    0.260300
    12  C    0.110306
    13  N   -0.063634
    14  H    0.112416
    15  H    0.081248
    16  H    0.022239
    17  H    0.032002
    18  H    0.027816
    19  N   -0.311566
    20  C    0.249292
    21  C    0.180696
    22  N   -0.110387
    23  H    0.112494
    24  H    0.114771
    25  N   -0.310334
    26  C    0.238381
    27  N   -0.148637
    28  H    0.121804
    29  C    0.194818
    30  O   -0.322371
    31  C   -0.015564
    32  N   -0.225845
    33  C    0.130738
    34  H    0.022711
    35  H    0.028487
    36  H    0.028740
    37  H    0.024480
    38  H    0.057281
    39  H    0.060264
    40  H    0.074183
    41  H    0.030073
    42  C   -0.119271
    43  O   -0.262091
    44  C    0.171692
    45  H    0.132374
    46  N   -0.123452
    47  O   -0.344200
    48  C    0.340923
    49  H    0.044360
    50  C    0.161099
    51  C    0.039156
    52  N   -0.278160
    53  H    0.035123
    54  H    0.040175
    55  H    0.028668
    56  H    0.118295
    57  H    0.115484
    58  N   -0.058579
    59  C    0.088845
    60  C    0.250227
    61  N   -0.273661
    62  H    0.040669
    63  C    0.168983
    64  N   -0.310514
    65  H    0.038542
    66  C    0.139385
    67  N   -0.267521
    68  C    0.029396
    69  C    0.179012
    70  N   -0.313829
 Sum of Mulliken charges =  -0.00000

 Dipole moment (field-independent basis, Debye):
    X=             -9.1178    Y=              5.7201    Z=             -1.0832  Tot=             10.8180
 Quadrupole moment (field-independent basis, Debye-Ang):
   XX=           -164.6686   YY=           -211.4949   ZZ=           -252.0080
   XY=              5.6281   XZ=             -8.2843   YZ=              4.0604

 Normal termination of Gaussian 16 at Fri Jan 26 15:58:16 2018.
