 Gaussian 16, Revision A.03,
 Gaussian 16:  EM64L-G16RevA.03 25-Dec-2016

 ---------------------------------------
 #p wb97xd/cc-pvdz sp scf=(maxcycles=20)
 ---------------------------------------

 ------------------
 Base pair stacking
 ------------------
 Symbolic Z-matrix:
 Charge =  0 Multiplicity = 1

                         Standard orientation:
 ---------------------------------------------------------------------
 Center     Atomic      Atomic             Coordinates (Angstroms)
 Number     Number       Type             X           Y           Z
 ---------------------------------------------------------------------
      1          7           0       -6.646162   -1.621431    0.458262
      2          6           0       -8.027732   -1.162599    0.215900
      3          6           0       -4.479494   -1.675561    0.832314
      4          7           0       -4.896132   -2.997508    0.772472
      5          6           0       -6.184803   -2.911994    0.549514
      6          1           0       -6.853455   -3.766553    0.441988
      7          7           0       -3.147536    0.259339    1.044412
      8          6           0       -4.268449    0.960246    0.844786
      9          1           0       -4.148198    2.042688    0.855700
     10          7           0       -5.509783    0.526823    0.634698
     11          6           0       -5.547083   -0.815937    0.640453
     12          6           0       -3.218236   -1.089765    1.044456
     13          7           0       -2.100392   -1.791162    1.243553
     14          1           0       -2.105873   -2.791731    1.251685
     15          1           0       -1.219843   -1.340674    1.391280
     16          1           0       -8.624827   -1.499359    0.944079
     17          1           0       -8.050457   -0.163374    0.202919
     18          1           0       -8.348012   -1.513054   -0.664212
     19          7           0       -2.323662    2.923876   -1.697465
     20          6           0       -1.051257    2.462204   -1.461065
     21          6           0       -2.769982    4.321305   -1.528090
     22          7           0        2.230031    3.051988   -0.487886
     23          1           0        3.072369    2.525393   -0.376498
     24          1           0        2.274371    4.028838   -0.276876
     25          7           0       -0.003374    3.201646   -1.037741
     26          6           0        1.091651    2.475021   -0.901551
     27          7           0        1.157544    1.127227   -1.159655
     28          1           0        2.037487    0.652555   -1.027906
     29          6           0        0.091957    0.346238   -1.596065
     30          8           0        0.257525   -0.862794   -1.799926
     31          6           0       -1.091353    1.112969   -1.747013
     32          7           0       -2.363333    0.735191   -2.154725
     33          6           0       -3.058541    1.839221   -2.109947
     34          1           0       -4.115058    1.918671   -2.368289
     35          1           0       -3.505167    4.358549   -0.852137
     36          1           0       -2.002149    4.878536   -1.214750
     37          1           0       -3.102470    4.674977   -2.401690
     38          1           0        6.523922   -1.241047    0.434584
     39          1           0        6.882587   -1.166562   -1.288920
     40          1           0        5.798891    0.020547   -0.562454
     41          1           0        4.176402   -5.140946   -1.123170
     42          6           0        4.053925   -4.057993   -1.101853
     43          8           0        1.733070   -4.126315   -1.587782
     44          6           0        2.761419   -3.494593   -1.346482
     45          1           0        1.820223   -1.681123   -1.463971
     46          7           0        2.716621   -2.115923   -1.296220
     47          8           0        3.622985   -0.052305   -1.018413
     48          6           0        3.761086   -1.262691   -1.041988
     49          1           0        6.095022   -3.629954   -0.658594
     50          6           0        5.091927   -3.251631   -0.850992
     51          6           0        6.120470   -1.010090   -0.540078
     52          7           0        4.974913   -1.881430   -0.816131
     53          1           0        3.481015    4.392116    2.334719
     54          1           0        2.393049    4.170846    1.139102
     55          1           0        3.990539    4.094221    0.813183
     56          1           0        1.345680   -2.711769    2.133107
     57          1           0        2.924595   -2.234045    2.567742
     58          7           0        2.022614   -1.980376    2.216606
     59          6           0        1.736253   -0.722366    1.875163
     60          6           0        2.208124    1.591196    1.581093
     61          7           0        0.988426    1.902787    1.112404
     62          1           0       -0.795474    0.983851    0.695394
     63          6           0        0.215584    0.819529    1.065551
     64          7           0        0.500543   -0.441316    1.407086
     65          1           0        5.265974    2.085646    2.506984
     66          6           0        4.290819    1.662884    2.263487
     67          7           0        3.970323    0.399748    2.403009
     68          6           0        2.652343    0.340629    1.973867
     69          6           0        3.285129    3.890375    1.492166
     70          7           0        3.271885    2.441165    1.770778
 ---------------------------------------------------------------------

 SCF Done:  E(RwB97XD) =  -2048.63473985     A.U. after   15 cycles

 The electronic state is 1-A.
 Alpha  occ. eigenvalues --  -19.25926 -19.22007 -19.20532 -14.52486 -14.52386
 Alpha  occ. eigenvalues --  -14.48923 -14.48616 -14.47927 -14.47925 -14.46043
 Alpha  occ. eigenvalues --  -14.45270 -14.45200 -14.43728 -14.42767 -14.42536
 Alpha  occ. eigenvalues --  -14.41626 -14.41514 -14.41087 -14.40598 -14.40337
 Alpha  occ. eigenvalues --  -10.45539 -10.41280 -10.40134 -10.39519 -10.38043
 Alpha  occ. eigenvalues --  -10.37880 -10.37865 -10.36611 -10.35644 -10.35186
 Alpha  occ. eigenvalues --  -10.35025 -10.34279 -10.34222 -10.34179 -10.33545
 Alpha  occ. eigenvalues --  -10.33296 -10.33020 -10.32279 -10.31180 -10.31044
 Alpha  occ. eigenvalues --  -10.30838 -10.28737 -10.27896  -1.19501  -1.15489
 Alpha  occ. eigenvalues --   -1.13316  -1.13037  -1.11519  -1.10480  -1.09375
 Alpha  occ. eigenvalues --   -1.09267  -1.08620  -1.05175  -1.04281  -1.02554
 Alpha  occ. eigenvalues --   -1.01896  -1.00673  -0.99406  -0.98367  -0.97172
 Alpha  occ. eigenvalues --   -0.96591  -0.96375  -0.92838  -0.91106  -0.87805
 Alpha  occ. eigenvalues --   -0.86451  -0.84106  -0.83967  -0.83640  -0.82475
 Alpha  occ. eigenvalues --   -0.82453  -0.78932  -0.77031  -0.74889  -0.74430
 Alpha  occ. eigenvalues --   -0.73802  -0.73396  -0.73113  -0.71260  -0.70469
 Alpha  occ. eigenvalues --   -0.67718  -0.66949  -0.66545  -0.66521  -0.64681
 Alpha  occ. eigenvalues --   -0.64397  -0.63744  -0.63073  -0.62818  -0.62774
 Alpha  occ. eigenvalues --   -0.60683  -0.60471  -0.60344  -0.59768  -0.59540
 Alpha  occ. eigenvalues --   -0.59265  -0.58888  -0.57380  -0.56719  -0.56497
 Alpha  occ. eigenvalues --   -0.56028  -0.55880  -0.55617  -0.54549  -0.54301
 Alpha  occ. eigenvalues --   -0.53848  -0.53364  -0.53293  -0.52907  -0.52769
 Alpha  occ. eigenvalues --   -0.52398  -0.51931  -0.51865  -0.50898  -0.50379
 Alpha  occ. eigenvalues --   -0.50052  -0.49724  -0.49418  -0.49077  -0.48804
 Alpha  occ. eigenvalues --   -0.48738  -0.48388  -0.48293  -0.48086  -0.47316
 Alpha  occ. eigenvalues --   -0.47116  -0.46043  -0.45240  -0.44018  -0.42772
 Alpha  occ. eigenvalues --   -0.41369  -0.39746  -0.39400  -0.38077  -0.37377
 Alpha  occ. eigenvalues --   -0.37204  -0.37033  -0.36550  -0.35752  -0.34627
 Alpha  occ. eigenvalues --   -0.34078  -0.33730  -0.33648  -0.33158  -0.32561
 Alpha  occ. eigenvalues --   -0.32339  -0.32048  -0.31909  -0.31691  -0.30976
 Alpha  occ. eigenvalues --   -0.30529  -0.28846  -0.26033  -0.24928
 Alpha virt. eigenvalues --    0.03000   0.03619   0.07267   0.07717   0.08436
 Alpha virt. eigenvalues --    0.09132   0.09494   0.10678   0.11534   0.12268
 Alpha virt. eigenvalues --    0.12797   0.13824   0.14060   0.14746   0.14993

 Mulliken charges:
               1
     1  N   -0.312069
     2  C    0.181208
     3  C    0.034254
     4  N   -0.260665
     5  C    0.134949
     6  H    0.027163
     7  N   -0.291598
     8  C    0.139669
     9  H    0.006082
    10  N   -0.289653
    11  C    0.248080
    12  C    0.126215
    13  N   -0.059606
    14  H    0.107610
    15  H    0.087310
    16  H    0.025180
    17  H    0.034317
    18  H    0.027275
    19  N   -0.310219
    20  C    0.224392
    21  C    0.181489
    22  N   -0.095424
    23  H    0.116968
    24  H    0.100292
    25  N   -0.266575
    26  C    0.173817
    27  N   -0.103998
    28  H    0.116701
    29  C    0.127863
    30  O   -0.315328
    31  C    0.018429
    32  N   -0.219683
    33  C    0.120321
    34  H    0.029101
    35  H    0.026572
    36  H    0.026975
    37  H    0.024839
    38  H    0.062008
    39  H    0.058035
    40  H    0.074063
    41  H    0.031928
    42  C   -0.112632
    43  O   -0.263350
    44  C    0.175521
    45  H    0.133934
    46  N   -0.136746
    47  O   -0.345898
    48  C    0.358696
    49  H    0.047783
    50  C    0.168791
    51  C    0.043877
    52  N   -0.295754
    53  H    0.029278
    54  H    0.044326
    55  H    0.010377
    56  H    0.123101
    57  H    0.115801
    58  N   -0.068859
    59  C    0.096889
    60  C    0.210103
    61  N   -0.263239
    62  H    0.073971
    63  C    0.165979
    64  N   -0.298345
    65  H    0.033822
    66  C    0.133852
    67  N   -0.264982
    68  C    0.047613
    69  C    0.187740
    70  N   -0.319936
 Sum of Mulliken charges =  -0.00000

 Dipole moment (field-independent basis, Debye):
    X=              8.2271    Y=              4.8502    Z=              3.6799  Tot=             10.2348
 Quadrupole moment (field-independent basis, Debye-Ang):
   XX=           -153.7469   YY=           -216.5106   ZZ=           -254.4710
   XY=             -1.5180   XZ=              8.7905   YZ=            -11.2988

 Normal termination of Gaussian 16 at Fri Jan 26 05:17:52 2018.
