 Gaussian 16, Revision A.03,
 Gaussian 16:  EM64L-G16RevA.03 25-Dec-2016

 ---------------------------------------
 #p wb97xd/cc-pvdz sp scf=(maxcycles=20)
 ---------------------------------------

 ------------------
 Base pair stacking
 ------------------
 Symbolic Z-matrix:
 Charge =  0 Multiplicity = 1

                         Standard orientation:
 ---------------------------------------------------------------------
 Center     Atomic      Atomic             Coordinates (Angstroms)
 Number     Number       Type             X           Y           Z
 ---------------------------------------------------------------------
      1          7           0       -5.937337   -1.837798    0.935016
      2          6           0       -7.344700   -1.411510    1.059968
      3          6           0       -3.738970   -1.886507    0.981100
      4          7           0       -4.144182   -3.118171    0.487615
      5          6           0       -5.452399   -3.039525    0.479601
      6          1           0       -6.119379   -3.836046    0.148470
      7          7           0       -2.413411   -0.083179    1.725318
      8          6           0       -3.559583    0.568792    1.946236
      9          1           0       -3.451843    1.577131    2.343609
     10          7           0       -4.812961    0.164105    1.750907
     11          6           0       -4.833131   -1.086640    1.261370
     12          6           0       -2.467381   -1.339866    1.232466
     13          7           0       -1.324326   -1.992310    1.011269
     14          1           0       -1.316727   -2.924290    0.647169
     15          1           0       -0.437112   -1.571994    1.201865
     16          1           0       -7.827697   -2.029321    1.680617
     17          1           0       -7.380885   -0.480795    1.422737
     18          1           0       -7.783149   -1.434529    0.161511
     19          7           0       -3.063763    3.270814   -1.574051
     20          6           0       -1.776845    2.791386   -1.528687
     21          6           0       -3.451304    4.689695   -1.442570
     22          7           0        1.633864    3.357330   -1.199327
     23          1           0        2.474385    2.816267   -1.195654
     24          1           0        1.730046    4.345798   -1.079294
     25          7           0       -0.659144    3.530011   -1.357764
     26          6           0        0.431340    2.784051   -1.358012
     27          7           0        0.429548    1.419021   -1.513600
     28          1           0        1.311482    0.930157   -1.500761
     29          6           0       -0.708546    0.638510   -1.690875
     30          8           0       -0.600479   -0.586997   -1.822042
     31          6           0       -1.887904    1.425909   -1.692816
     32          7           0       -3.217770    1.055532   -1.838281
     33          6           0       -3.876876    2.179762   -1.761456
     34          1           0       -4.961140    2.270209   -1.835367
     35          1           0       -4.053921    4.800565   -0.653038
     36          1           0       -2.631503    5.246518   -1.315486
     37          1           0       -3.928352    4.984677   -2.269756
     38          1           0        5.956802   -0.976685   -0.702254
     39          1           0        6.004403   -1.045803   -2.462254
     40          1           0        5.085541    0.225189   -1.655008
     41          1           0        3.310005   -4.914029   -1.501211
     42          6           0        3.209943   -3.829519   -1.546510
     43          8           0        0.838901   -3.866577   -1.609167
     44          6           0        1.903354   -3.248753   -1.604643
     45          1           0        0.984280   -1.422749   -1.701202
     46          7           0        1.889424   -1.869588   -1.659178
     47          8           0        2.862375    0.181656   -1.713413
     48          6           0        2.975451   -1.030492   -1.662757
     49          1           0        5.303675   -3.429005   -1.505614
     50          6           0        4.288289   -3.037201   -1.548451
     51          6           0        5.390081   -0.809695   -1.606137
     52          7           0        4.200429   -1.665530   -1.604702
     53          1           0        4.281965    3.703728    3.599796
     54          1           0        3.037163    3.867162    2.557742
     55          1           0        4.572570    4.017828    2.024892
     56          1           0        2.224113   -2.952353    1.044918
     57          1           0        3.843124   -2.567272    1.419912
     58          7           0        2.897309   -2.260812    1.307067
     59          6           0        2.550243   -0.986334    1.497941
     60          6           0        2.947831    1.298998    2.027948
     61          7           0        1.670108    1.681981    1.869311
     62          1           0       -0.144022    0.867826    1.372635
     63          6           0        0.911402    0.644285    1.522231
     64          7           0        1.257124   -0.632936    1.330559
     65          1           0        6.100457    1.614116    2.671253
     66          6           0        5.105615    1.248610    2.415060
     67          7           0        4.823323    0.004574    2.114428
     68          6           0        3.458375    0.022707    1.866808
     69          6           0        3.973780    3.534479    2.663649
     70          7           0        4.017619    2.086414    2.382264
 ---------------------------------------------------------------------

 SCF Done:  E(RwB97XD) =  -2048.74452633     A.U. after   15 cycles

 The electronic state is 1-A.
 Alpha  occ. eigenvalues --  -19.26135 -19.22604 -19.20735 -14.52745 -14.52071
 Alpha  occ. eigenvalues --  -14.48873 -14.48110 -14.48091 -14.47995 -14.47092
 Alpha  occ. eigenvalues --  -14.46896 -14.45162 -14.43883 -14.43835 -14.42168
 Alpha  occ. eigenvalues --  -14.41568 -14.40899 -14.40714 -14.40231 -14.39594
 Alpha  occ. eigenvalues --  -10.45760 -10.41384 -10.40619 -10.39553 -10.38336
 Alpha  occ. eigenvalues --  -10.38278 -10.37665 -10.36759 -10.35266 -10.35208
 Alpha  occ. eigenvalues --  -10.34760 -10.34441 -10.33607 -10.33408 -10.33353
 Alpha  occ. eigenvalues --  -10.32664 -10.32452 -10.32285 -10.31605 -10.31021
 Alpha  occ. eigenvalues --  -10.30424 -10.28199 -10.27825  -1.19706  -1.14801
 Alpha  occ. eigenvalues --   -1.13556  -1.13333  -1.10684  -1.10654  -1.09654
 Alpha  occ. eigenvalues --   -1.08921  -1.08701  -1.04495  -1.04329  -1.02811
 Alpha  occ. eigenvalues --   -1.00635  -0.99932  -0.99759  -0.98670  -0.96683
 Alpha  occ. eigenvalues --   -0.96502  -0.96222  -0.91999  -0.91493  -0.87228
 Alpha  occ. eigenvalues --   -0.85560  -0.84216  -0.83794  -0.83288  -0.82608
 Alpha  occ. eigenvalues --   -0.81694  -0.79268  -0.76672  -0.74747  -0.74401
 Alpha  occ. eigenvalues --   -0.73832  -0.73660  -0.72262  -0.70406  -0.70074
 Alpha  occ. eigenvalues --   -0.67539  -0.66844  -0.66489  -0.65659  -0.64720
 Alpha  occ. eigenvalues --   -0.63965  -0.63934  -0.62832  -0.62061  -0.61894
 Alpha  occ. eigenvalues --   -0.60291  -0.60080  -0.59920  -0.59812  -0.59276
 Alpha  occ. eigenvalues --   -0.59034  -0.58557  -0.56723  -0.56213  -0.55983
 Alpha  occ. eigenvalues --   -0.55773  -0.55005  -0.54758  -0.54689  -0.54396
 Alpha  occ. eigenvalues --   -0.53837  -0.53656  -0.53322  -0.53134  -0.53117
 Alpha  occ. eigenvalues --   -0.52610  -0.52416  -0.51187  -0.50351  -0.50084
 Alpha  occ. eigenvalues --   -0.49728  -0.49652  -0.49379  -0.49128  -0.48885
 Alpha  occ. eigenvalues --   -0.48538  -0.48432  -0.48238  -0.47837  -0.47537
 Alpha  occ. eigenvalues --   -0.46320  -0.45751  -0.44791  -0.44352  -0.44209
 Alpha  occ. eigenvalues --   -0.40452  -0.40307  -0.39672  -0.37508  -0.37402
 Alpha  occ. eigenvalues --   -0.37377  -0.37121  -0.36493  -0.36144  -0.34623
 Alpha  occ. eigenvalues --   -0.34090  -0.33853  -0.33642  -0.32925  -0.32849
 Alpha  occ. eigenvalues --   -0.32704  -0.32494  -0.32374  -0.31939  -0.30259
 Alpha  occ. eigenvalues --   -0.29818  -0.29668  -0.25705  -0.24936
 Alpha virt. eigenvalues --    0.02423   0.04365   0.07531   0.08062   0.08651
 Alpha virt. eigenvalues --    0.09151   0.09629   0.10906   0.11703   0.11725
 Alpha virt. eigenvalues --    0.12522   0.14340   0.14429   0.14971   0.15157

 Mulliken charges:
               1
     1  N   -0.312464
     2  C    0.181473
     3  C    0.042620
     4  N   -0.257772
     5  C    0.134262
     6  H    0.024386
     7  N   -0.298356
     8  C    0.140071
     9  H    0.007255
    10  N   -0.292663
    11  C    0.251102
    12  C    0.118462
    13  N   -0.055509
    14  H    0.113500
    15  H    0.084344
    16  H    0.023464
    17  H    0.032663
    18  H    0.025526
    19  N   -0.312339
    20  C    0.248694
    21  C    0.180915
    22  N   -0.117386
    23  H    0.114316
    24  H    0.115600
    25  N   -0.309797
    26  C    0.242565
    27  N   -0.146087
    28  H    0.118460
    29  C    0.185639
    30  O   -0.320173
    31  C   -0.006643
    32  N   -0.225332
    33  C    0.131171
    34  H    0.026215
    35  H    0.028993
    36  H    0.028565
    37  H    0.024893
    38  H    0.063467
    39  H    0.059036
    40  H    0.074536
    41  H    0.032124
    42  C   -0.111010
    43  O   -0.263097
    44  C    0.146611
    45  H    0.133780
    46  N   -0.114991
    47  O   -0.343802
    48  C    0.340284
    49  H    0.048428
    50  C    0.157314
    51  C    0.040812
    52  N   -0.279427
    53  H    0.033910
    54  H    0.043401
    55  H    0.025041
    56  H    0.128922
    57  H    0.115392
    58  N   -0.064049
    59  C    0.082541
    60  C    0.242072
    61  N   -0.267467
    62  H    0.040792
    63  C    0.167312
    64  N   -0.306535
    65  H    0.035353
    66  C    0.137622
    67  N   -0.271637
    68  C    0.037051
    69  C    0.178604
    70  N   -0.313024
 Sum of Mulliken charges =  -0.00000

 Dipole moment (field-independent basis, Debye):
    X=              9.3655    Y=              5.5291    Z=              0.9123  Tot=             10.9141
 Quadrupole moment (field-independent basis, Debye-Ang):
   XX=           -160.3894   YY=           -211.7933   ZZ=           -250.5506
   XY=             -5.0888   XZ=              0.0671   YZ=             -2.8356

 Normal termination of Gaussian 16 at Fri Jan 26 03:34:45 2018.
