 Gaussian 16, Revision A.03,
 Gaussian 16:  EM64L-G16RevA.03 25-Dec-2016

 ---------------------------------------
 #p wb97xd/cc-pvdz sp scf=(maxcycles=20)
 ---------------------------------------

 ------------------
 Base pair stacking
 ------------------
 Symbolic Z-matrix:
 Charge =  0 Multiplicity = 1

                         Standard orientation:
 ---------------------------------------------------------------------
 Center     Atomic      Atomic             Coordinates (Angstroms)
 Number     Number       Type             X           Y           Z
 ---------------------------------------------------------------------
      1          7           0       -6.410410   -1.652659    0.621157
      2          6           0       -7.801275   -1.188736    0.453037
      3          6           0       -4.232414   -1.715708    0.920596
      4          7           0       -4.644699   -3.034056    0.791341
      5          6           0       -5.940370   -2.943307    0.616116
      6          1           0       -6.608249   -3.793880    0.476841
      7          7           0       -2.903125    0.210916    1.210541
      8          6           0       -4.033202    0.915482    1.091821
      9          1           0       -3.917632    1.995889    1.166832
     10          7           0       -5.278743    0.487830    0.895285
     11          6           0       -5.309662   -0.852871    0.817857
     12          6           0       -2.967587   -1.135976    1.128106
     13          7           0       -1.840599   -1.841027    1.246377
     14          1           0       -1.841203   -2.840153    1.191781
     15          1           0       -0.957763   -1.394827    1.393487
     16          1           0       -8.372624   -1.574424    1.177604
     17          1           0       -7.829008   -0.190840    0.503619
     18          1           0       -8.148616   -1.485485   -0.436499
     19          7           0       -2.579385    2.989988   -1.680425
     20          6           0       -1.301452    2.523716   -1.486736
     21          6           0       -3.010963    4.392314   -1.513274
     22          7           0        2.018137    3.106371   -0.648518
     23          1           0        2.861153    2.576142   -0.562340
     24          1           0        2.076083    4.085688   -0.452834
     25          7           0       -0.233895    3.262345   -1.114189
     26          6           0        0.861441    2.530885   -1.010173
     27          7           0        0.909740    1.179341   -1.252051
     28          1           0        1.791405    0.701080   -1.147679
     29          6           0       -0.176247    0.399111   -1.636414
     30          8           0       -0.025469   -0.813571   -1.829838
     31          6           0       -1.360140    1.171007   -1.752340
     32          7           0       -2.648995    0.795607   -2.105657
     33          6           0       -3.335715    1.904409   -2.049403
     34          1           0       -4.400921    1.986875   -2.268045
     35          1           0       -3.719363    4.443232   -0.810151
     36          1           0       -2.228498    4.948987   -1.237361
     37          1           0       -3.374834    4.736170   -2.378245
     38          1           0        6.320050   -1.200203    0.167317
     39          1           0        6.612526   -1.151261   -1.569546
     40          1           0        5.564320    0.052233   -0.818393
     41          1           0        3.892338   -5.106263   -1.245293
     42          6           0        3.776886   -4.022392   -1.234197
     43          8           0        1.438700   -4.082962   -1.629626
     44          6           0        2.479121   -3.454388   -1.436719
     45          1           0        1.544360   -1.636896   -1.542917
     46          7           0        2.444081   -2.074921   -1.403749
     47          8           0        3.372094   -0.013354   -1.189398
     48          6           0        3.502349   -1.224780   -1.201597
     49          1           0        5.835917   -3.600985   -0.875595
     50          6           0        4.828315   -3.219129   -1.034506
     51          6           0        5.880701   -0.979970   -0.794206
     52          7           0        4.720459   -1.847880   -1.014035
     53          1           0        3.745070    4.298711    2.542337
     54          1           0        2.619523    4.145562    1.371102
     55          1           0        4.205808    4.100130    0.989367
     56          1           0        1.636989   -2.792628    1.964074
     57          1           0        3.227088   -2.332584    2.376440
     58          7           0        2.312917   -2.063418    2.071370
     59          6           0        2.009737   -0.788413    1.819125
     60          6           0        2.461060    1.542114    1.655871
     61          7           0        1.225234    1.874333    1.247502
     62          1           0       -0.567136    0.971502    0.831642
     63          6           0        0.456262    0.791036    1.157760
     64          7           0        0.758059   -0.486816    1.409961
     65          1           0        5.545322    1.997894    2.511336
     66          6           0        4.564660    1.584744    2.273503
     67          7           0        4.254725    0.313250    2.343710
     68          6           0        2.923678    0.272379    1.954669
     69          6           0        3.523980    3.849453    1.676723
     70          7           0        3.526547    2.385588    1.863991
 ---------------------------------------------------------------------

 SCF Done:  E(RwB97XD) =  -2048.70020191     A.U. after   15 cycles

 The electronic state is 1-A.
 Alpha  occ. eigenvalues --  -19.25955 -19.22031 -19.20706 -14.52479 -14.52282
 Alpha  occ. eigenvalues --  -14.48800 -14.48702 -14.47910 -14.47826 -14.46714
 Alpha  occ. eigenvalues --  -14.46128 -14.45148 -14.43584 -14.42805 -14.42301
 Alpha  occ. eigenvalues --  -14.42104 -14.41390 -14.40844 -14.40757 -14.40102
 Alpha  occ. eigenvalues --  -10.45545 -10.41147 -10.40151 -10.39359 -10.38239
 Alpha  occ. eigenvalues --  -10.37882 -10.37691 -10.36583 -10.35405 -10.35079
 Alpha  occ. eigenvalues --  -10.35034 -10.34394 -10.34197 -10.34052 -10.33304
 Alpha  occ. eigenvalues --  -10.33209 -10.33052 -10.32075 -10.31205 -10.30951
 Alpha  occ. eigenvalues --  -10.30888 -10.28488 -10.28129  -1.19512  -1.14977
 Alpha  occ. eigenvalues --   -1.13379  -1.13060  -1.11288  -1.10633  -1.09375
 Alpha  occ. eigenvalues --   -1.09027  -1.08477  -1.04937  -1.04285  -1.02533
 Alpha  occ. eigenvalues --   -1.00956  -1.00429  -0.99796  -0.98613  -0.96947
 Alpha  occ. eigenvalues --   -0.96610  -0.96245  -0.92601  -0.91110  -0.87371
 Alpha  occ. eigenvalues --   -0.85953  -0.84140  -0.83883  -0.83584  -0.82560
 Alpha  occ. eigenvalues --   -0.82268  -0.78937  -0.76727  -0.74745  -0.74497
 Alpha  occ. eigenvalues --   -0.73716  -0.73393  -0.72882  -0.71023  -0.70168
 Alpha  occ. eigenvalues --   -0.67513  -0.66644  -0.66470  -0.66297  -0.64499
 Alpha  occ. eigenvalues --   -0.64100  -0.63808  -0.62871  -0.62704  -0.62129
 Alpha  occ. eigenvalues --   -0.60390  -0.60294  -0.60076  -0.59563  -0.59548
 Alpha  occ. eigenvalues --   -0.59241  -0.58421  -0.57165  -0.56497  -0.56304
 Alpha  occ. eigenvalues --   -0.56029  -0.55822  -0.55432  -0.54865  -0.54361
 Alpha  occ. eigenvalues --   -0.53877  -0.53641  -0.53168  -0.52992  -0.52821
 Alpha  occ. eigenvalues --   -0.52383  -0.52257  -0.51716  -0.50690  -0.50195
 Alpha  occ. eigenvalues --   -0.50167  -0.49448  -0.49404  -0.48840  -0.48802
 Alpha  occ. eigenvalues --   -0.48696  -0.48412  -0.48320  -0.48207  -0.47429
 Alpha  occ. eigenvalues --   -0.46887  -0.46015  -0.45010  -0.43998  -0.43349
 Alpha  occ. eigenvalues --   -0.41122  -0.40229  -0.39503  -0.37848  -0.37318
 Alpha  occ. eigenvalues --   -0.37279  -0.37140  -0.36717  -0.35889  -0.34655
 Alpha  occ. eigenvalues --   -0.34205  -0.33522  -0.33440  -0.33197  -0.32679
 Alpha  occ. eigenvalues --   -0.32453  -0.32035  -0.31940  -0.31802  -0.30756
 Alpha  occ. eigenvalues --   -0.30310  -0.28970  -0.25919  -0.25273
 Alpha virt. eigenvalues --    0.03000   0.04328   0.07551   0.08010   0.08525
 Alpha virt. eigenvalues --    0.09060   0.09415   0.10910   0.11420   0.11952
 Alpha virt. eigenvalues --    0.12514   0.13942   0.14191   0.14641   0.14962

 Mulliken charges:
               1
     1  N   -0.312290
     2  C    0.181334
     3  C    0.036368
     4  N   -0.260463
     5  C    0.134692
     6  H    0.026402
     7  N   -0.291851
     8  C    0.141873
     9  H    0.006016
    10  N   -0.291677
    11  C    0.249307
    12  C    0.124723
    13  N   -0.058454
    14  H    0.108312
    15  H    0.086584
    16  H    0.024730
    17  H    0.033485
    18  H    0.026898
    19  N   -0.310603
    20  C    0.237038
    21  C    0.181343
    22  N   -0.089710
    23  H    0.115386
    24  H    0.109335
    25  N   -0.285306
    26  C    0.196995
    27  N   -0.112642
    28  H    0.116087
    29  C    0.141610
    30  O   -0.315506
    31  C    0.022039
    32  N   -0.222201
    33  C    0.123988
    34  H    0.028179
    35  H    0.028112
    36  H    0.027759
    37  H    0.024946
    38  H    0.062834
    39  H    0.057647
    40  H    0.074303
    41  H    0.031714
    42  C   -0.112283
    43  O   -0.263373
    44  C    0.172107
    45  H    0.133437
    46  N   -0.131509
    47  O   -0.346521
    48  C    0.354570
    49  H    0.047842
    50  C    0.167283
    51  C    0.042751
    52  N   -0.292861
    53  H    0.038219
    54  H    0.040983
    55  H    0.022511
    56  H    0.123311
    57  H    0.114954
    58  N   -0.068693
    59  C    0.085438
    60  C    0.210453
    61  N   -0.266156
    62  H    0.050854
    63  C    0.168907
    64  N   -0.301473
    65  H    0.033729
    66  C    0.134143
    67  N   -0.265863
    68  C    0.050361
    69  C    0.161335
    70  N   -0.313793
 Sum of Mulliken charges =  -0.00000

 Dipole moment (field-independent basis, Debye):
    X=              8.4532    Y=              5.1360    Z=              2.8717  Tot=             10.2996
 Quadrupole moment (field-independent basis, Debye-Ang):
   XX=           -156.0554   YY=           -214.7259   ZZ=           -254.3028
   XY=             -2.8576   XZ=              5.8044   YZ=            -10.1954

 Normal termination of Gaussian 16 at Thu Jan 25 23:33:15 2018.
