 Gaussian 16, Revision A.03,
 Gaussian 16:  EM64L-G16RevA.03 25-Dec-2016

 ---------------------------------------
 #p wb97xd/cc-pvdz sp scf=(maxcycles=20)
 ---------------------------------------

 ------------------
 Base pair stacking
 ------------------
 Symbolic Z-matrix:
 Charge =  0 Multiplicity = 1

                         Standard orientation:
 ---------------------------------------------------------------------
 Center     Atomic      Atomic             Coordinates (Angstroms)
 Number     Number       Type             X           Y           Z
 ---------------------------------------------------------------------
      1          7           0       -6.721676   -1.617557    0.378325
      2          6           0       -8.118769   -1.152771    0.277809
      3          6           0       -4.543154   -1.694868    0.670582
      4          7           0       -4.937036   -2.984623    0.344839
      5          6           0       -6.233750   -2.886422    0.181802
      6          1           0       -6.889685   -3.715695   -0.084664
      7          7           0       -3.240905    0.184805    1.248427
      8          6           0       -4.380598    0.883700    1.233363
      9          1           0       -4.280090    1.942262    1.469176
     10          7           0       -5.619996    0.473233    0.971968
     11          6           0       -5.632235   -0.841152    0.695089
     12          6           0       -3.286610   -1.135423    0.965600
     13          7           0       -2.150003   -1.834766    0.980132
     14          1           0       -2.136705   -2.814438    0.776948
     15          1           0       -1.273518   -1.403533    1.194498
     16          1           0       -8.685060   -1.650119    0.935173
     17          1           0       -8.160374   -0.174099    0.476778
     18          1           0       -8.461507   -1.318034   -0.646963
     19          7           0       -2.175064    3.062683   -1.825976
     20          6           0       -0.905062    2.581133   -1.618044
     21          6           0       -2.570237    4.484104   -1.761772
     22          7           0        2.442514    3.144143   -0.884205
     23          1           0        3.274267    2.601348   -0.771078
     24          1           0        2.527203    4.133971   -0.766750
     25          7           0        0.186435    3.319621   -1.322522
     26          6           0        1.265980    2.571337   -1.180126
     27          7           0        1.277835    1.204294   -1.316306
     28          1           0        2.149793    0.713729   -1.189764
     29          6           0        0.166727    0.423887   -1.620047
     30          8           0        0.285198   -0.803559   -1.720524
     31          6           0       -1.000615    1.213755   -1.775972
     32          7           0       -2.304374    0.844297   -2.077002
     33          6           0       -2.963583    1.970921   -2.096058
     34          1           0       -4.030470    2.062701   -2.302439
     35          1           0       -3.263902    4.607245   -1.052916
     36          1           0       -1.769827    5.040845   -1.543515
     37          1           0       -2.942095    4.768613   -2.644719
     38          1           0        6.656277   -1.191984    0.193197
     39          1           0        6.917114   -1.285634   -1.546876
     40          1           0        5.911877   -0.001546   -0.874563
     41          1           0        4.111011   -5.134249   -0.868270
     42          6           0        4.021376   -4.050259   -0.940053
     43          8           0        1.675399   -4.083007   -1.289944
     44          6           0        2.733780   -3.467503   -1.164424
     45          1           0        1.840298   -1.641013   -1.396662
     46          7           0        2.731904   -2.089205   -1.238885
     47          8           0        3.712129   -0.041032   -1.202181
     48          6           0        3.813541   -1.252608   -1.121768
     49          1           0        6.096150   -3.653786   -0.650378
     50          6           0        5.095011   -3.260406   -0.821612
     51          6           0        6.204232   -1.036325   -0.775048
     52          7           0        5.019925   -1.889457   -0.906662
     53          1           0        3.349206    4.118243    3.192851
     54          1           0        2.226478    4.126385    2.008990
     55          1           0        3.813433    4.160157    1.628834
     56          1           0        1.340108   -2.835301    1.556608
     57          1           0        2.923452   -2.420336    2.037129
     58          7           0        2.005786   -2.121135    1.773343
     59          6           0        1.685057   -0.827026    1.713563
     60          6           0        2.104056    1.507700    1.901350
     61          7           0        0.863922    1.880274    1.544002
     62          1           0       -0.915518    1.025280    0.993373
     63          6           0        0.110131    0.812125    1.291503
     64          7           0        0.429514   -0.484807    1.350809
     65          1           0        5.181250    1.872672    2.823210
     66          6           0        4.206538    1.486322    2.523828
     67          7           0        3.914266    0.214498    2.402553
     68          6           0        2.584103    0.214008    2.008357
     69          6           0        3.134812    3.800339    2.269289
     70          7           0        3.157614    2.325087    2.235836
 ---------------------------------------------------------------------

 SCF Done:  E(RwB97XD) =  -2048.74014722     A.U. after   15 cycles

 The electronic state is 1-A.
 Alpha  occ. eigenvalues --  -19.26075 -19.22415 -19.20772 -14.52707 -14.51643
 Alpha  occ. eigenvalues --  -14.48897 -14.48671 -14.48092 -14.47253 -14.47182
 Alpha  occ. eigenvalues --  -14.47022 -14.44651 -14.43152 -14.43032 -14.42212
 Alpha  occ. eigenvalues --  -14.42039 -14.41345 -14.40894 -14.40765 -14.39998
 Alpha  occ. eigenvalues --  -10.45716 -10.41485 -10.40487 -10.38891 -10.38388
 Alpha  occ. eigenvalues --  -10.38157 -10.37230 -10.36161 -10.35349 -10.35266
 Alpha  occ. eigenvalues --  -10.34550 -10.34513 -10.34005 -10.33426 -10.33345
 Alpha  occ. eigenvalues --  -10.33252 -10.32954 -10.31739 -10.31444 -10.31007
 Alpha  occ. eigenvalues --  -10.30866 -10.28422 -10.28292  -1.19660  -1.14340
 Alpha  occ. eigenvalues --   -1.13417  -1.13394  -1.11251  -1.10726  -1.09594
 Alpha  occ. eigenvalues --   -1.08841  -1.08215  -1.04831  -1.03790  -1.02769
 Alpha  occ. eigenvalues --   -1.00318  -1.00288  -1.00013  -0.98693  -0.96867
 Alpha  occ. eigenvalues --   -0.96700  -0.95752  -0.92480  -0.91367  -0.86756
 Alpha  occ. eigenvalues --   -0.85199  -0.84283  -0.83835  -0.83834  -0.82652
 Alpha  occ. eigenvalues --   -0.82212  -0.79175  -0.76117  -0.74819  -0.73971
 Alpha  occ. eigenvalues --   -0.73787  -0.73626  -0.72781  -0.70931  -0.69524
 Alpha  occ. eigenvalues --   -0.67664  -0.66817  -0.66185  -0.65875  -0.64696
 Alpha  occ. eigenvalues --   -0.63977  -0.63375  -0.62887  -0.62562  -0.62098
 Alpha  occ. eigenvalues --   -0.60139  -0.59876  -0.59791  -0.59660  -0.59203
 Alpha  occ. eigenvalues --   -0.58819  -0.58680  -0.56841  -0.56419  -0.56288
 Alpha  occ. eigenvalues --   -0.56184  -0.55286  -0.54977  -0.54634  -0.54432
 Alpha  occ. eigenvalues --   -0.53860  -0.53616  -0.53141  -0.52920  -0.52637
 Alpha  occ. eigenvalues --   -0.52507  -0.51947  -0.51648  -0.50609  -0.50348
 Alpha  occ. eigenvalues --   -0.50076  -0.49669  -0.49204  -0.49075  -0.48762
 Alpha  occ. eigenvalues --   -0.48593  -0.48450  -0.48244  -0.47948  -0.47583
 Alpha  occ. eigenvalues --   -0.46837  -0.45673  -0.44952  -0.44362  -0.43387
 Alpha  occ. eigenvalues --   -0.41027  -0.39771  -0.39614  -0.37688  -0.37407
 Alpha  occ. eigenvalues --   -0.37063  -0.37033  -0.36586  -0.35730  -0.34521
 Alpha  occ. eigenvalues --   -0.33736  -0.33551  -0.33421  -0.33299  -0.33097
 Alpha  occ. eigenvalues --   -0.32821  -0.32534  -0.32290  -0.31954  -0.30765
 Alpha  occ. eigenvalues --   -0.30231  -0.29017  -0.25684  -0.25582
 Alpha virt. eigenvalues --    0.02700   0.04835   0.07634   0.08055   0.08366
 Alpha virt. eigenvalues --    0.09320   0.09381   0.11063   0.11443   0.12004
 Alpha virt. eigenvalues --    0.12562   0.14068   0.14423   0.14694   0.14940

 Mulliken charges:
               1
     1  N   -0.311358
     2  C    0.181139
     3  C    0.033118
     4  N   -0.259087
     5  C    0.133541
     6  H    0.026120
     7  N   -0.293027
     8  C    0.135712
     9  H    0.007527
    10  N   -0.291178
    11  C    0.244032
    12  C    0.126623
    13  N   -0.055844
    14  H    0.109875
    15  H    0.089706
    16  H    0.024993
    17  H    0.034241
    18  H    0.025969
    19  N   -0.312254
    20  C    0.242216
    21  C    0.181689
    22  N   -0.115593
    23  H    0.116122
    24  H    0.115920
    25  N   -0.294969
    26  C    0.225521
    27  N   -0.122938
    28  H    0.113318
    29  C    0.150805
    30  O   -0.316698
    31  C    0.005882
    32  N   -0.221366
    33  C    0.129555
    34  H    0.030249
    35  H    0.029222
    36  H    0.027921
    37  H    0.025021
    38  H    0.063567
    39  H    0.058663
    40  H    0.074556
    41  H    0.032244
    42  C   -0.112207
    43  O   -0.267280
    44  C    0.160342
    45  H    0.135287
    46  N   -0.127675
    47  O   -0.347520
    48  C    0.357111
    49  H    0.049488
    50  C    0.169755
    51  C    0.043981
    52  N   -0.293862
    53  H    0.034345
    54  H    0.045951
    55  H    0.013331
    56  H    0.128225
    57  H    0.112679
    58  N   -0.066095
    59  C    0.091157
    60  C    0.225640
    61  N   -0.257159
    62  H    0.054990
    63  C    0.154249
    64  N   -0.298207
    65  H    0.030847
    66  C    0.130417
    67  N   -0.267946
    68  C    0.034983
    69  C    0.172717
    70  N   -0.308296
 Sum of Mulliken charges =  -0.00000

 Dipole moment (field-independent basis, Debye):
    X=              8.8617    Y=              5.1460    Z=              1.9868  Tot=             10.4383
 Quadrupole moment (field-independent basis, Debye-Ang):
   XX=           -153.3406   YY=           -213.8146   ZZ=           -251.3206
   XY=             -1.9576   XZ=              9.2435   YZ=             -7.7404

 Normal termination of Gaussian 16 at Fri Jan 26 16:32:21 2018.
