 Gaussian 16, Revision A.03,
 Gaussian 16:  EM64L-G16RevA.03 25-Dec-2016

 ---------------------------------------
 #p wb97xd/cc-pvdz sp scf=(maxcycles=20)
 ---------------------------------------

 ------------------
 Base pair stacking
 ------------------
 Symbolic Z-matrix:
 Charge =  0 Multiplicity = 1

                         Standard orientation:
 ---------------------------------------------------------------------
 Center     Atomic      Atomic             Coordinates (Angstroms)
 Number     Number       Type             X           Y           Z
 ---------------------------------------------------------------------
      1          7           0       -5.889389   -1.787115    0.998101
      2          6           0       -7.294449   -1.335708    1.005406
      3          6           0       -3.693638   -1.841561    1.112213
      4          7           0       -4.100345   -3.139479    0.838837
      5          6           0       -5.406934   -3.054728    0.781027
      6          1           0       -6.074406   -3.893509    0.581390
      7          7           0       -2.366737    0.057717    1.553790
      8          6           0       -3.510537    0.746681    1.621742
      9          1           0       -3.401315    1.809570    1.832907
     10          7           0       -4.763119    0.321811    1.468708
     11          6           0       -4.785259   -0.996771    1.213179
     12          6           0       -2.422650   -1.267068    1.295148
     13          7           0       -1.281958   -1.956519    1.226924
     14          1           0       -1.275845   -2.939069    1.037797
     15          1           0       -0.395089   -1.514653    1.362470
     16          1           0       -7.800317   -1.827572    1.714161
     17          1           0       -7.329100   -0.354454    1.192669
     18          1           0       -7.709983   -1.518147    0.114310
     19          7           0       -3.150556    3.119108   -1.539842
     20          6           0       -1.860234    2.654017   -1.457279
     21          6           0       -3.564482    4.525010   -1.358776
     22          7           0        1.522974    3.245498   -0.941714
     23          1           0        2.370261    2.715341   -0.924622
     24          1           0        1.599023    4.228079   -0.770047
     25          7           0       -0.762543    3.397252   -1.198947
     26          6           0        0.337584    2.665745   -1.183871
     27          7           0        0.362954    1.309974   -1.404654
     28          1           0        1.250415    0.832025   -1.373969
     29          6           0       -0.754190    0.524966   -1.672278
     30          8           0       -0.622262   -0.691292   -1.856859
     31          6           0       -1.943586    1.296854   -1.691708
     32          7           0       -3.259759    0.917546   -1.916925
     33          6           0       -3.938084    2.028469   -1.817233
     34          1           0       -5.018989    2.108953   -1.937450
     35          1           0       -4.204488    4.589928   -0.593937
     36          1           0       -2.759672    5.085114   -1.166869
     37          1           0       -4.007061    4.853900   -2.192302
     38          1           0        5.881298   -1.053673   -0.451056
     39          1           0        6.011148   -1.036605   -2.208184
     40          1           0        5.037482    0.182186   -1.384856
     41          1           0        3.332139   -4.980039   -1.561026
     42          6           0        3.218410   -3.895928   -1.558900
     43          8           0        0.853598   -3.959265   -1.734283
     44          6           0        1.907546   -3.329247   -1.650276
     45          1           0        0.967293   -1.512233   -1.702110
     46          7           0        1.875972   -1.949350   -1.639202
     47          8           0        2.820264    0.114007   -1.549373
     48          6           0        2.948600   -1.097680   -1.551665
     49          1           0        5.301927   -3.471973   -1.400806
     50          6           0        4.283982   -3.091164   -1.472334
     51          6           0        5.354551   -0.850004   -1.371449
     52          7           0        4.178750   -1.719564   -1.466789
     53          1           0        4.321931    4.076081    2.894235
     54          1           0        3.106223    4.056461    1.806235
     55          1           0        4.656415    4.097690    1.297031
     56          1           0        2.253074   -2.918605    1.530558
     57          1           0        3.866308   -2.482953    1.873738
     58          7           0        2.927321   -2.195602    1.681539
     59          6           0        2.590299   -0.905309    1.629137
     60          6           0        3.000686    1.435476    1.747576
     61          7           0        1.731973    1.792036    1.487453
     62          1           0       -0.078165    0.913685    1.096945
     63          6           0        0.970412    0.713806    1.313261
     64          7           0        1.306074   -0.579327    1.365342
     65          1           0        6.139235    1.840551    2.409052
     66          6           0        5.147112    1.441435    2.196171
     67          7           0        4.858187    0.165463    2.117978
     68          6           0        3.500330    0.147690    1.833999
     69          6           0        4.035888    3.742132    1.996101
     70          7           0        4.070107    2.266787    1.982645
 ---------------------------------------------------------------------

 SCF Done:  E(RwB97XD) =  -2048.74194094     A.U. after   15 cycles

 The electronic state is 1-A.
 Alpha  occ. eigenvalues --  -19.25855 -19.22069 -19.20572 -14.52445 -14.52355
 Alpha  occ. eigenvalues --  -14.48720 -14.48308 -14.48267 -14.47840 -14.46846
 Alpha  occ. eigenvalues --  -14.46402 -14.45373 -14.44074 -14.43916 -14.42013
 Alpha  occ. eigenvalues --  -14.41955 -14.40966 -14.40728 -14.40484 -14.39874
 Alpha  occ. eigenvalues --  -10.45476 -10.41048 -10.40178 -10.39767 -10.38147
 Alpha  occ. eigenvalues --  -10.37932 -10.37874 -10.36971 -10.35437 -10.35085
 Alpha  occ. eigenvalues --  -10.34963 -10.34249 -10.34021 -10.33654 -10.33202
 Alpha  occ. eigenvalues --  -10.32907 -10.32696 -10.32455 -10.31261 -10.30902
 Alpha  occ. eigenvalues --  -10.30579 -10.28096 -10.28010  -1.19434  -1.15051
 Alpha  occ. eigenvalues --   -1.13152  -1.13075  -1.10886  -1.10525  -1.09335
 Alpha  occ. eigenvalues --   -1.09139  -1.08451  -1.04717  -1.04608  -1.02480
 Alpha  occ. eigenvalues --   -1.00896  -1.00082  -0.99613  -0.98486  -0.96727
 Alpha  occ. eigenvalues --   -0.96522  -0.96467  -0.92297  -0.91137  -0.87481
 Alpha  occ. eigenvalues --   -0.85884  -0.84026  -0.83517  -0.83511  -0.82452
 Alpha  occ. eigenvalues --   -0.81920  -0.78933  -0.76897  -0.74713  -0.74507
 Alpha  occ. eigenvalues --   -0.73572  -0.73346  -0.72541  -0.70668  -0.70315
 Alpha  occ. eigenvalues --   -0.67285  -0.66730  -0.66536  -0.65947  -0.64444
 Alpha  occ. eigenvalues --   -0.64193  -0.63735  -0.62681  -0.62359  -0.61630
 Alpha  occ. eigenvalues --   -0.60497  -0.60172  -0.60058  -0.59542  -0.59403
 Alpha  occ. eigenvalues --   -0.59291  -0.58255  -0.56668  -0.56234  -0.55968
 Alpha  occ. eigenvalues --   -0.55943  -0.55356  -0.55084  -0.54651  -0.54343
 Alpha  occ. eigenvalues --   -0.53865  -0.53623  -0.53248  -0.53085  -0.52915
 Alpha  occ. eigenvalues --   -0.52592  -0.52321  -0.51396  -0.50322  -0.50128
 Alpha  occ. eigenvalues --   -0.49858  -0.49584  -0.49452  -0.49060  -0.48805
 Alpha  occ. eigenvalues --   -0.48531  -0.48268  -0.48129  -0.47698  -0.47323
 Alpha  occ. eigenvalues --   -0.46539  -0.45678  -0.44843  -0.44497  -0.43952
 Alpha  occ. eigenvalues --   -0.40743  -0.40629  -0.39429  -0.37732  -0.37556
 Alpha  occ. eigenvalues --   -0.37210  -0.36977  -0.36749  -0.35875  -0.34856
 Alpha  occ. eigenvalues --   -0.34274  -0.33396  -0.33203  -0.33153  -0.32837
 Alpha  occ. eigenvalues --   -0.32602  -0.32321  -0.32048  -0.31778  -0.30492
 Alpha  occ. eigenvalues --   -0.30062  -0.29818  -0.25683  -0.24980
 Alpha virt. eigenvalues --    0.02880   0.04220   0.07312   0.08278   0.08412
 Alpha virt. eigenvalues --    0.09332   0.09738   0.10710   0.11474   0.11644
 Alpha virt. eigenvalues --    0.12193   0.14052   0.14561   0.14739   0.15147

 Mulliken charges:
               1
     1  N   -0.312987
     2  C    0.181686
     3  C    0.042587
     4  N   -0.259590
     5  C    0.135395
     6  H    0.025372
     7  N   -0.295316
     8  C    0.142152
     9  H    0.007361
    10  N   -0.290918
    11  C    0.254653
    12  C    0.118903
    13  N   -0.058709
    14  H    0.110508
    15  H    0.083336
    16  H    0.023634
    17  H    0.032416
    18  H    0.026736
    19  N   -0.311749
    20  C    0.246188
    21  C    0.180886
    22  N   -0.096063
    23  H    0.112599
    24  H    0.112913
    25  N   -0.305998
    26  C    0.224989
    27  N   -0.142779
    28  H    0.122752
    29  C    0.177410
    30  O   -0.320840
    31  C   -0.001046
    32  N   -0.224906
    33  C    0.130810
    34  H    0.024608
    35  H    0.028825
    36  H    0.028136
    37  H    0.024422
    38  H    0.061214
    39  H    0.058638
    40  H    0.073626
    41  H    0.030989
    42  C   -0.112810
    43  O   -0.262847
    44  C    0.165025
    45  H    0.133221
    46  N   -0.122545
    47  O   -0.344139
    48  C    0.341354
    49  H    0.046967
    50  C    0.161946
    51  C    0.041103
    52  N   -0.284436
    53  H    0.036292
    54  H    0.038454
    55  H    0.026914
    56  H    0.123795
    57  H    0.115676
    58  N   -0.063136
    59  C    0.080240
    60  C    0.236095
    61  N   -0.268634
    62  H    0.039945
    63  C    0.163521
    64  N   -0.301500
    65  H    0.036301
    66  C    0.137228
    67  N   -0.269352
    68  C    0.041410
    69  C    0.175191
    70  N   -0.314122
 Sum of Mulliken charges =  -0.00000

 Dipole moment (field-independent basis, Debye):
    X=              8.9989    Y=              5.4201    Z=              1.9063  Tot=             10.6767
 Quadrupole moment (field-independent basis, Debye-Ang):
   XX=           -159.9919   YY=           -212.5531   ZZ=           -253.4416
   XY=             -4.5485   XZ=             -0.7128   YZ=             -6.7728

 Normal termination of Gaussian 16 at Thu Jan 25 19:04:54 2018.
