 Gaussian 16, Revision A.03,
 Gaussian 16:  EM64L-G16RevA.03 25-Dec-2016

 ---------------------------------------
 #p wb97xd/cc-pvdz sp scf=(maxcycles=20)
 ---------------------------------------

 ------------------
 Base pair stacking
 ------------------
 Symbolic Z-matrix:
 Charge =  0 Multiplicity = 1

                         Standard orientation:
 ---------------------------------------------------------------------
 Center     Atomic      Atomic             Coordinates (Angstroms)
 Number     Number       Type             X           Y           Z
 ---------------------------------------------------------------------
      1          7           0       -6.140960   -1.699019    0.816617
      2          6           0       -7.537523   -1.237940    0.694075
      3          6           0       -3.954986   -1.758047    1.051855
      4          7           0       -4.366902   -3.076296    0.920411
      5          6           0       -5.667391   -2.987972    0.783943
      6          1           0       -6.336486   -3.839214    0.654970
      7          7           0       -2.623613    0.169755    1.323828
      8          6           0       -3.758780    0.871800    1.245668
      9          1           0       -3.644322    1.951718    1.328964
     10          7           0       -5.008238    0.442149    1.080840
     11          6           0       -5.037358   -0.897738    0.989842
     12          6           0       -2.686401   -1.176391    1.228740
     13          7           0       -1.554330   -1.878925    1.306526
     14          1           0       -1.553525   -2.877397    1.241180
     15          1           0       -0.668928   -1.431401    1.432702
     16          1           0       -8.086358   -1.633267    1.430737
     17          1           0       -7.566770   -0.240741    0.756232
     18          1           0       -7.909734   -1.526292   -0.188146
     19          7           0       -2.886263    3.018282   -1.600045
     20          6           0       -1.601832    2.554205   -1.448687
     21          6           0       -3.317000    4.417294   -1.405251
     22          7           0        1.738998    3.138848   -0.701154
     23          1           0        2.585756    2.610526   -0.645282
     24          1           0        1.799677    4.116198   -0.496658
     25          7           0       -0.526100    3.292334   -1.099394
     26          6           0        0.573992    2.563438   -1.035202
     27          7           0        0.619285    1.214733   -1.292986
     28          1           0        1.505050    0.738309   -1.219491
     29          6           0       -0.475089    0.435071   -1.654002
     30          8           0       -0.326367   -0.774961   -1.864836
     31          6           0       -1.664171    1.204232   -1.727076
     32          7           0       -2.961637    0.828367   -2.046780
     33          6           0       -3.649756    1.934217   -1.958579
     34          1           0       -4.721122    2.015488   -2.145229
     35          1           0       -4.004763    4.458321   -0.681313
     36          1           0       -2.528515    4.973570   -1.146222
     37          1           0       -3.706946    4.769196   -2.255498
     38          1           0        6.075773   -1.161927   -0.057463
     39          1           0        6.317379   -1.093393   -1.801470
     40          1           0        5.287889    0.098491   -1.007163
     41          1           0        3.619688   -5.060650   -1.440997
     42          6           0        3.501351   -3.977349   -1.414825
     43          8           0        1.152833   -4.041432   -1.742693
     44          6           0        2.196536   -3.411516   -1.573345
     45          1           0        1.253622   -1.596101   -1.632636
     46          7           0        2.158320   -2.032604   -1.524464
     47          8           0        3.085992    0.029613   -1.314910
     48          6           0        3.219476   -1.181174   -1.343996
     49          1           0        5.568680   -3.552981   -1.111751
     50          6           0        4.555723   -3.172789   -1.237140
     51          6           0        5.607940   -0.932856   -1.003357
     52          7           0        4.444399   -1.802204   -1.198707
     53          1           0        4.048247    4.265075    2.505736
     54          1           0        2.889525    4.120751    1.366158
     55          1           0        4.464145    4.084688    0.937960
     56          1           0        1.945531   -2.826614    1.912407
     57          1           0        3.545578   -2.365744    2.283282
     58          7           0        2.622103   -2.096357    2.007871
     59          6           0        2.307874   -0.819743    1.778357
     60          6           0        2.747247    1.513897    1.627246
     61          7           0        1.499047    1.846372    1.258623
     62          1           0       -0.301948    0.942098    0.885364
     63          6           0        0.731054    0.761543    1.179594
     64          7           0        1.043906   -0.517922    1.409074
     65          1           0        5.853728    1.970709    2.397481
     66          6           0        4.867807    1.556880    2.183841
     67          7           0        4.563873    0.283686    2.249272
     68          6           0        3.222174    0.242570    1.898713
     69          6           0        3.803386    3.824394    1.642114
     70          7           0        3.815804    2.358610    1.813392
 ---------------------------------------------------------------------

 SCF Done:  E(RwB97XD) =  -2048.70908871     A.U. after   15 cycles

 The electronic state is 1-A.
 Alpha  occ. eigenvalues --  -19.25883 -19.21945 -19.20652 -14.52417 -14.52406
 Alpha  occ. eigenvalues --  -14.48759 -14.48553 -14.48027 -14.47821 -14.46815
 Alpha  occ. eigenvalues --  -14.46058 -14.45300 -14.43772 -14.43076 -14.42239
 Alpha  occ. eigenvalues --  -14.42074 -14.41237 -14.40723 -14.40701 -14.40018
 Alpha  occ. eigenvalues --  -10.45471 -10.40898 -10.40070 -10.39504 -10.38175
 Alpha  occ. eigenvalues --  -10.37823 -10.37789 -10.36773 -10.35301 -10.35180
 Alpha  occ. eigenvalues --  -10.34950 -10.34357 -10.34315 -10.33909 -10.33219
 Alpha  occ. eigenvalues --  -10.33152 -10.32916 -10.32203 -10.31155 -10.30927
 Alpha  occ. eigenvalues --  -10.30775 -10.28343 -10.28074  -1.19445  -1.15051
 Alpha  occ. eigenvalues --   -1.13292  -1.12977  -1.11137  -1.10591  -1.09304
 Alpha  occ. eigenvalues --   -1.09052  -1.08465  -1.04829  -1.04506  -1.02441
 Alpha  occ. eigenvalues --   -1.00935  -1.00316  -0.99740  -0.98580  -0.96827
 Alpha  occ. eigenvalues --   -0.96586  -0.96364  -0.92497  -0.91045  -0.87468
 Alpha  occ. eigenvalues --   -0.86019  -0.84079  -0.83746  -0.83484  -0.82504
 Alpha  occ. eigenvalues --   -0.82143  -0.78868  -0.76819  -0.74743  -0.74584
 Alpha  occ. eigenvalues --   -0.73605  -0.73308  -0.72765  -0.70895  -0.70289
 Alpha  occ. eigenvalues --   -0.67385  -0.66665  -0.66497  -0.66180  -0.64430
 Alpha  occ. eigenvalues --   -0.64204  -0.63740  -0.62853  -0.62591  -0.61789
 Alpha  occ. eigenvalues --   -0.60537  -0.60276  -0.60133  -0.59502  -0.59472
 Alpha  occ. eigenvalues --   -0.59318  -0.58309  -0.56981  -0.56383  -0.56164
 Alpha  occ. eigenvalues --   -0.56000  -0.55700  -0.55315  -0.54983  -0.54323
 Alpha  occ. eigenvalues --   -0.54015  -0.53623  -0.53111  -0.52977  -0.52920
 Alpha  occ. eigenvalues --   -0.52454  -0.52253  -0.51599  -0.50572  -0.50149
 Alpha  occ. eigenvalues --   -0.50047  -0.49446  -0.49373  -0.48962  -0.48764
 Alpha  occ. eigenvalues --   -0.48702  -0.48244  -0.48143  -0.47970  -0.47358
 Alpha  occ. eigenvalues --   -0.46735  -0.45962  -0.44867  -0.43953  -0.43897
 Alpha  occ. eigenvalues --   -0.40985  -0.40732  -0.39456  -0.37892  -0.37615
 Alpha  occ. eigenvalues --   -0.37254  -0.37007  -0.36727  -0.35886  -0.34908
 Alpha  occ. eigenvalues --   -0.34208  -0.33445  -0.33333  -0.33120  -0.32627
 Alpha  occ. eigenvalues --   -0.32410  -0.31952  -0.31816  -0.31446  -0.30649
 Alpha  occ. eigenvalues --   -0.30219  -0.29281  -0.25847  -0.24962
 Alpha virt. eigenvalues --    0.03063   0.04391   0.07429   0.08167   0.08363
 Alpha virt. eigenvalues --    0.09317   0.09491   0.10905   0.11340   0.11773
 Alpha virt. eigenvalues --    0.12302   0.13945   0.14428   0.14540   0.15018

 Mulliken charges:
               1
     1  N   -0.312831
     2  C    0.181558
     3  C    0.039109
     4  N   -0.260650
     5  C    0.135003
     6  H    0.026010
     7  N   -0.291118
     8  C    0.144893
     9  H    0.006041
    10  N   -0.291858
    11  C    0.252349
    12  C    0.121911
    13  N   -0.059410
    14  H    0.108466
    15  H    0.084675
    16  H    0.024248
    17  H    0.032734
    18  H    0.027039
    19  N   -0.310098
    20  C    0.242597
    21  C    0.181099
    22  N   -0.075908
    23  H    0.112186
    24  H    0.112009
    25  N   -0.296184
    26  C    0.204691
    27  N   -0.127174
    28  H    0.120377
    29  C    0.158705
    30  O   -0.318151
    31  C    0.013973
    32  N   -0.223176
    33  C    0.125932
    34  H    0.025880
    35  H    0.028560
    36  H    0.027852
    37  H    0.024690
    38  H    0.062134
    39  H    0.057804
    40  H    0.073953
    41  H    0.031321
    42  C   -0.111919
    43  O   -0.262576
    44  C    0.171465
    45  H    0.133048
    46  N   -0.128027
    47  O   -0.345853
    48  C    0.349317
    49  H    0.047318
    50  C    0.165331
    51  C    0.041770
    52  N   -0.290046
    53  H    0.039258
    54  H    0.030479
    55  H    0.029516
    56  H    0.122209
    57  H    0.115363
    58  N   -0.067062
    59  C    0.079698
    60  C    0.225210
    61  N   -0.277656
    62  H    0.036859
    63  C    0.171341
    64  N   -0.300964
    65  H    0.034946
    66  C    0.134868
    67  N   -0.266679
    68  C    0.048937
    69  C    0.167550
    70  N   -0.314944
 Sum of Mulliken charges =  -0.00000

 Dipole moment (field-independent basis, Debye):
    X=              8.5941    Y=              5.3018    Z=              2.6465  Tot=             10.4390
 Quadrupole moment (field-independent basis, Debye-Ang):
   XX=           -158.0333   YY=           -213.9404   ZZ=           -254.7997
   XY=             -3.6985   XZ=              2.3780   YZ=             -9.6472

 Normal termination of Gaussian 16 at Thu Jan 25 22:47:45 2018.
