 Gaussian 16, Revision A.03,
 Gaussian 16:  EM64L-G16RevA.03 25-Dec-2016

 ---------------------------------------
 #p wb97xd/cc-pvdz sp scf=(maxcycles=20)
 ---------------------------------------

 ------------------
 Base pair stacking
 ------------------
 Symbolic Z-matrix:
 Charge =  0 Multiplicity = 1

                         Standard orientation:
 ---------------------------------------------------------------------
 Center     Atomic      Atomic             Coordinates (Angstroms)
 Number     Number       Type             X           Y           Z
 ---------------------------------------------------------------------
      1          7           0        4.249528   -2.261923   -1.894488
      2          6           0        5.645433   -1.917980   -2.227878
      3          6           0        2.077826   -2.163540   -1.560808
      4          7           0        2.460478   -3.459431   -1.246232
      5          6           0        3.753536   -3.466841   -1.459859
      6          1           0        4.400889   -4.332257   -1.315173
      7          7           0        0.794394   -0.216695   -1.915146
      8          6           0        1.935569    0.377335   -2.279050
      9          1           0        1.843512    1.423123   -2.569087
     10          7           0        3.167608   -0.124159   -2.338214
     11          6           0        3.169736   -1.413684   -1.962000
     12          6           0        0.829830   -1.514614   -1.542031
     13          7           0       -0.308274   -2.109340   -1.178439
     14          1           0       -0.329031   -3.068689   -0.894819
     15          1           0       -1.178475   -1.616494   -1.177138
     16          1           0        5.966556   -2.505391   -2.970849
     17          1           0        5.694393   -0.961874   -2.515259
     18          1           0        6.225171   -2.052856   -1.424324
     19          7           0        4.819232    2.999902    0.670972
     20          6           0        3.513170    2.620998    0.867705
     21          6           0        5.274413    4.373270    0.375402
     22          7           0        0.140896    3.431403    1.048562
     23          1           0       -0.723195    2.958717    1.219308
     24          1           0        0.093017    4.415127    0.873333
     25          7           0        2.434920    3.433120    0.824402
     26          6           0        1.311726    2.776398    1.054091
     27          7           0        1.247240    1.427557    1.307057
     28          1           0        0.344406    1.009506    1.471600
     29          6           0        2.343783    0.572553    1.356409
     30          8           0        2.176567   -0.630333    1.592712
     31          6           0        3.557575    1.263668    1.111588
     32          7           0        4.865195    0.799764    1.068835
     33          6           0        5.576755    1.862014    0.805143
     34          1           0        6.661935    1.871506    0.697526
     35          1           0        5.744393    4.387890   -0.506473
     36          1           0        4.484283    4.983818    0.340854
     37          1           0        5.900332    4.680129    1.091560
     38          1           0       -4.486758   -0.572560    1.569820
     39          1           0       -4.247482   -0.529608    3.314973
     40          1           0       -3.391116    0.613474    2.279915
     41          1           0       -2.015668   -4.648887    2.220846
     42          6           0       -1.836661   -3.574829    2.169873
     43          8           0        0.504190   -3.793801    1.854313
     44          6           0       -0.502316   -3.095845    1.975131
     45          1           0        0.540968   -1.345067    1.789001
     46          7           0       -0.386694   -1.721295    1.925447
     47          8           0       -1.196899    0.399394    1.984339
     48          6           0       -1.398176   -0.800975    2.041484
     49          1           0       -3.876584   -3.014614    2.435773
     50          6           0       -2.844018   -2.701766    2.286500
     51          6           0       -3.768558   -0.395383    2.356497
     52          7           0       -2.655876   -1.340348    2.227198
     53          1           0       -5.796661    4.154150   -2.283883
     54          1           0       -4.385638    4.138912   -1.464802
     55          1           0       -5.792865    4.338558   -0.662342
     56          1           0       -3.877178   -2.830062   -0.670823
     57          1           0       -5.500187   -2.307642   -0.725900
     58          7           0       -4.527449   -2.074959   -0.755184
     59          6           0       -4.116744   -0.813436   -0.900322
     60          6           0       -4.413946    1.532234   -1.167208
     61          7           0       -3.101278    1.815164   -1.203190
     62          1           0       -1.300379    0.842470   -1.097224
     63          6           0       -2.380371    0.702708   -1.078244
     64          7           0       -2.789844   -0.561710   -0.932781
     65          1           0       -7.594459    2.109511   -1.224173
     66          6           0       -6.603128    1.658041   -1.175422
     67          7           0       -6.374591    0.375772   -1.029709
     68          6           0       -4.990417    0.282274   -1.022927
     69          6           0       -5.350263    3.878933   -1.432425
     70          7           0       -5.461707    2.416868   -1.265241
 ---------------------------------------------------------------------

 SCF Done:  E(RwB97XD) =  -2048.74515125     A.U. after   15 cycles

 The electronic state is 1-A.
 Alpha  occ. eigenvalues --  -19.25306 -19.21411 -19.20618 -14.52503 -14.51902
 Alpha  occ. eigenvalues --  -14.49083 -14.48988 -14.47927 -14.47192 -14.46831
 Alpha  occ. eigenvalues --  -14.46626 -14.45454 -14.44949 -14.44743 -14.42813
 Alpha  occ. eigenvalues --  -14.42082 -14.41154 -14.40648 -14.40574 -14.40321
 Alpha  occ. eigenvalues --  -10.44899 -10.41257 -10.40503 -10.39509 -10.38247
 Alpha  occ. eigenvalues --  -10.38045 -10.37541 -10.37460 -10.36208 -10.35454
 Alpha  occ. eigenvalues --  -10.34539 -10.34477 -10.33871 -10.33572 -10.33340
 Alpha  occ. eigenvalues --  -10.32983 -10.32823 -10.32816 -10.31136 -10.30840
 Alpha  occ. eigenvalues --  -10.29923 -10.28237 -10.28110  -1.18849  -1.15308
 Alpha  occ. eigenvalues --   -1.13225  -1.12420  -1.10726  -1.10607  -1.09863
 Alpha  occ. eigenvalues --   -1.08793  -1.08563  -1.05363  -1.04959  -1.01863
 Alpha  occ. eigenvalues --   -1.01107  -1.00458  -0.99726  -0.98605  -0.97357
 Alpha  occ. eigenvalues --   -0.96758  -0.96303  -0.92653  -0.90695  -0.87854
 Alpha  occ. eigenvalues --   -0.85999  -0.84266  -0.83320  -0.83072  -0.82653
 Alpha  occ. eigenvalues --   -0.81614  -0.78435  -0.77385  -0.75184  -0.74712
 Alpha  occ. eigenvalues --   -0.73635  -0.72818  -0.72636  -0.70828  -0.70665
 Alpha  occ. eigenvalues --   -0.67410  -0.67222  -0.66098  -0.66020  -0.64588
 Alpha  occ. eigenvalues --   -0.64368  -0.63544  -0.62607  -0.62517  -0.61799
 Alpha  occ. eigenvalues --   -0.60874  -0.60511  -0.59934  -0.59602  -0.59162
 Alpha  occ. eigenvalues --   -0.59097  -0.58336  -0.56798  -0.56326  -0.55682
 Alpha  occ. eigenvalues --   -0.55554  -0.55405  -0.55329  -0.54828  -0.54141
 Alpha  occ. eigenvalues --   -0.53847  -0.53567  -0.53431  -0.53013  -0.52994
 Alpha  occ. eigenvalues --   -0.52552  -0.51952  -0.51127  -0.50314  -0.50192
 Alpha  occ. eigenvalues --   -0.50067  -0.49713  -0.49423  -0.49044  -0.48773
 Alpha  occ. eigenvalues --   -0.48562  -0.48099  -0.47900  -0.47731  -0.47161
 Alpha  occ. eigenvalues --   -0.46484  -0.45599  -0.45387  -0.44642  -0.43530
 Alpha  occ. eigenvalues --   -0.40984  -0.40899  -0.39014  -0.38096  -0.37877
 Alpha  occ. eigenvalues --   -0.37396  -0.37320  -0.36632  -0.35343  -0.35165
 Alpha  occ. eigenvalues --   -0.34779  -0.34048  -0.33140  -0.33030  -0.32938
 Alpha  occ. eigenvalues --   -0.32629  -0.32434  -0.31927  -0.31465  -0.30558
 Alpha  occ. eigenvalues --   -0.30409  -0.30129  -0.25966  -0.25268
 Alpha virt. eigenvalues --    0.03291   0.03851   0.06671   0.08261   0.08902
 Alpha virt. eigenvalues --    0.09237   0.09738   0.10403   0.11190   0.11287
 Alpha virt. eigenvalues --    0.13717   0.14401   0.14608   0.14804   0.14990

 Mulliken charges:
               1
     1  N   -0.312645
     2  C    0.184491
     3  C    0.059559
     4  N   -0.255368
     5  C    0.144950
     6  H    0.027357
     7  N   -0.295872
     8  C    0.128450
     9  H    0.011759
    10  N   -0.279497
    11  C    0.260712
    12  C    0.085507
    13  N   -0.070998
    14  H    0.112676
    15  H    0.082572
    16  H    0.019429
    17  H    0.032381
    18  H    0.033079
    19  N   -0.311404
    20  C    0.251408
    21  C    0.180916
    22  N   -0.122821
    23  H    0.119881
    24  H    0.117557
    25  N   -0.312531
    26  C    0.247577
    27  N   -0.144458
    28  H    0.119347
    29  C    0.187216
    30  O   -0.320617
    31  C   -0.007797
    32  N   -0.232401
    33  C    0.125527
    34  H    0.023157
    35  H    0.027512
    36  H    0.029762
    37  H    0.025130
    38  H    0.057876
    39  H    0.057915
    40  H    0.075762
    41  H    0.028285
    42  C   -0.115608
    43  O   -0.252115
    44  C    0.158587
    45  H    0.136796
    46  N   -0.123335
    47  O   -0.351198
    48  C    0.354633
    49  H    0.041059
    50  C    0.159607
    51  C    0.039740
    52  N   -0.280124
    53  H    0.034270
    54  H    0.040437
    55  H    0.030335
    56  H    0.117093
    57  H    0.120338
    58  N   -0.064893
    59  C    0.072464
    60  C    0.249384
    61  N   -0.275087
    62  H    0.031963
    63  C    0.180518
    64  N   -0.313069
    65  H    0.039569
    66  C    0.142960
    67  N   -0.261233
    68  C    0.028232
    69  C    0.180353
    70  N   -0.313019
 Sum of Mulliken charges =  -0.00000

 Dipole moment (field-independent basis, Debye):
    X=             -8.7200    Y=              6.1610    Z=             -0.2148  Tot=             10.6790
 Quadrupole moment (field-independent basis, Debye-Ang):
   XX=           -173.8188   YY=           -210.5668   ZZ=           -249.0403
   XY=              7.4439   XZ=            -18.0669   YZ=              3.4735

 Normal termination of Gaussian 16 at Fri Jan 26 18:12:56 2018.
