 Gaussian 16, Revision A.03,
 Gaussian 16:  EM64L-G16RevA.03 25-Dec-2016

 ---------------------------------------
 #p wb97xd/cc-pvdz sp scf=(maxcycles=20)
 ---------------------------------------

 ------------------
 Base pair stacking
 ------------------
 Symbolic Z-matrix:
 Charge =  0 Multiplicity = 1

                         Standard orientation:
 ---------------------------------------------------------------------
 Center     Atomic      Atomic             Coordinates (Angstroms)
 Number     Number       Type             X           Y           Z
 ---------------------------------------------------------------------
      1          7           0        5.262519   -1.968929   -1.414741
      2          6           0        6.671811   -1.549552   -1.541326
      3          6           0        3.063897   -1.976352   -1.357096
      4          7           0        3.463622   -3.276939   -1.086096
      5          6           0        4.772210   -3.220406   -1.131671
      6          1           0        5.435634   -4.069542   -0.964994
      7          7           0        1.746377   -0.057571   -1.738363
      8          6           0        2.895482    0.603840   -1.910651
      9          1           0        2.792247    1.664146   -2.137254
     10          7           0        4.147078    0.154238   -1.845336
     11          6           0        4.161660   -1.158714   -1.561854
     12          6           0        1.794735   -1.377426   -1.454249
     13          7           0        0.648748   -2.039389   -1.281919
     14          1           0        0.636976   -3.017279   -1.070204
     15          1           0       -0.236601   -1.580670   -1.358531
     16          1           0        7.110559   -2.067775   -2.275575
     17          1           0        6.712156   -0.573571   -1.753363
     18          1           0        7.151669   -1.722147   -0.681123
     19          7           0        3.830832    3.109054    1.223621
     20          6           0        2.528612    2.671478    1.252060
     21          6           0        4.258517    4.501079    0.978549
     22          7           0       -0.871465    3.327812    0.986624
     23          1           0       -1.728332    2.816627    1.047500
     24          1           0       -0.940224    4.307949    0.798678
     25          7           0        1.429820    3.433534    1.062427
     26          6           0        0.316899    2.726835    1.149560
     27          7           0        0.280642    1.377028    1.402953
     28          1           0       -0.616262    0.918650    1.452184
     29          6           0        1.398681    0.572980    1.601307
     30          8           0        1.256291   -0.635750    1.823643
     31          6           0        2.601769    1.318122    1.510663
     32          7           0        3.923324    0.914186    1.641943
     33          6           0        4.614758    2.007155    1.464320
     34          1           0        5.703174    2.065835    1.498534
     35          1           0        4.838157    4.535135    0.165127
     36          1           0        3.453013    5.074922    0.836667
     37          1           0        4.771482    4.837720    1.767446
     38          1           0       -5.343187   -0.881645    0.934714
     39          1           0       -5.335280   -0.823969    2.695755
     40          1           0       -4.403642    0.354642    1.771486
     41          1           0       -2.797420   -4.839715    1.934386
     42          6           0       -2.661692   -3.758736    1.898373
     43          8           0       -0.292234   -3.871541    1.891425
     44          6           0       -1.336209   -3.219892    1.874775
     45          1           0       -0.357201   -1.423822    1.811552
     46          7           0       -1.276908   -1.841612    1.829367
     47          8           0       -2.182234    0.240088    1.765256
     48          6           0       -2.335170   -0.968073    1.805517
     49          1           0       -4.741939   -3.291451    1.892415
     50          6           0       -3.713820   -2.932208    1.876029
     51          6           0       -4.742179   -0.670194    1.806570
     52          7           0       -3.580843   -1.563772    1.830617
     53          1           0       -4.941458    4.080742   -2.649160
     54          1           0       -3.645290    4.057078   -1.658459
     55          1           0       -5.149872    4.144124   -1.031770
     56          1           0       -2.918419   -2.927915   -1.288410
     57          1           0       -4.544101   -2.463491   -1.515556
     58          7           0       -3.587209   -2.193305   -1.403385
     59          6           0       -3.220389   -0.910103   -1.407119
     60          6           0       -3.590005    1.436251   -1.547531
     61          7           0       -2.297738    1.769635   -1.394805
     62          1           0       -0.481314    0.859316   -1.125501
     63          6           0       -1.547492    0.678510   -1.255242
     64          7           0       -1.913011   -0.607553   -1.251229
     65          1           0       -6.761481    1.897631   -1.973043
     66          6           0       -5.764283    1.480918   -1.828492
     67          7           0       -5.496736    0.200744   -1.743421
     68          6           0       -4.121537    0.158479   -1.565164
     69          6           0       -4.593259    3.759777   -1.768403
     70          7           0       -4.656996    2.286196   -1.718205
 ---------------------------------------------------------------------

 SCF Done:  E(RwB97XD) =  -2048.74800481     A.U. after   15 cycles

 The electronic state is 1-A.
 Alpha  occ. eigenvalues --  -19.25546 -19.21826 -19.20435 -14.52586 -14.52252
 Alpha  occ. eigenvalues --  -14.48699 -14.48699 -14.48108 -14.47579 -14.46721
 Alpha  occ. eigenvalues --  -14.46277 -14.45592 -14.44567 -14.44550 -14.42228
 Alpha  occ. eigenvalues --  -14.41843 -14.40768 -14.40747 -14.40433 -14.39966
 Alpha  occ. eigenvalues --  -10.45228 -10.41018 -10.40240 -10.39953 -10.38144
 Alpha  occ. eigenvalues --  -10.38064 -10.37831 -10.37376 -10.35935 -10.35147
 Alpha  occ. eigenvalues --  -10.34843 -10.34208 -10.34065 -10.33482 -10.33204
 Alpha  occ. eigenvalues --  -10.32874 -10.32791 -10.32652 -10.31120 -10.30898
 Alpha  occ. eigenvalues --  -10.30346 -10.28007 -10.27951  -1.19174  -1.15334
 Alpha  occ. eigenvalues --   -1.13025  -1.12827  -1.10712  -1.10460  -1.09576
 Alpha  occ. eigenvalues --   -1.09133  -1.08346  -1.05132  -1.04657  -1.02237
 Alpha  occ. eigenvalues --   -1.01149  -1.00119  -0.99450  -0.98388  -0.97120
 Alpha  occ. eigenvalues --   -0.96481  -0.96390  -0.92348  -0.91002  -0.87792
 Alpha  occ. eigenvalues --   -0.86074  -0.83978  -0.83373  -0.83361  -0.82411
 Alpha  occ. eigenvalues --   -0.81777  -0.78763  -0.77245  -0.75066  -0.74466
 Alpha  occ. eigenvalues --   -0.73424  -0.73137  -0.72505  -0.70701  -0.70552
 Alpha  occ. eigenvalues --   -0.67185  -0.67071  -0.66353  -0.65907  -0.64520
 Alpha  occ. eigenvalues --   -0.64302  -0.63642  -0.62533  -0.62337  -0.61528
 Alpha  occ. eigenvalues --   -0.60766  -0.60381  -0.60156  -0.59483  -0.59418
 Alpha  occ. eigenvalues --   -0.59312  -0.58081  -0.56595  -0.56217  -0.55789
 Alpha  occ. eigenvalues --   -0.55710  -0.55499  -0.55169  -0.54514  -0.54125
 Alpha  occ. eigenvalues --   -0.53948  -0.53522  -0.53445  -0.53093  -0.52901
 Alpha  occ. eigenvalues --   -0.52781  -0.52196  -0.51264  -0.50224  -0.50101
 Alpha  occ. eigenvalues --   -0.49982  -0.49694  -0.49536  -0.49196  -0.48682
 Alpha  occ. eigenvalues --   -0.48523  -0.48203  -0.47985  -0.47537  -0.47173
 Alpha  occ. eigenvalues --   -0.46455  -0.45666  -0.45364  -0.44276  -0.43764
 Alpha  occ. eigenvalues --   -0.40936  -0.40719  -0.39197  -0.37895  -0.37777
 Alpha  occ. eigenvalues --   -0.37136  -0.37099  -0.36603  -0.35580  -0.35016
 Alpha  occ. eigenvalues --   -0.34656  -0.33592  -0.33129  -0.33058  -0.32886
 Alpha  occ. eigenvalues --   -0.32522  -0.32298  -0.31936  -0.31738  -0.30443
 Alpha  occ. eigenvalues --   -0.30324  -0.30026  -0.25433  -0.25223
 Alpha virt. eigenvalues --    0.02684   0.04204   0.06617   0.08443   0.08816
 Alpha virt. eigenvalues --    0.09343   0.09944   0.10379   0.11386   0.11437
 Alpha virt. eigenvalues --    0.12652   0.14250   0.14719   0.14904   0.15187

 Mulliken charges:
               1
     1  N   -0.313310
     2  C    0.182716
     3  C    0.047838
     4  N   -0.259318
     5  C    0.138558
     6  H    0.025585
     7  N   -0.299175
     8  C    0.137475
     9  H    0.009855
    10  N   -0.285661
    11  C    0.261247
    12  C    0.109773
    13  N   -0.063814
    14  H    0.111520
    15  H    0.080912
    16  H    0.022242
    17  H    0.031975
    18  H    0.028262
    19  N   -0.311017
    20  C    0.248620
    21  C    0.180648
    22  N   -0.104246
    23  H    0.111453
    24  H    0.113773
    25  N   -0.309702
    26  C    0.232515
    27  N   -0.147219
    28  H    0.121260
    29  C    0.193042
    30  O   -0.322927
    31  C   -0.016577
    32  N   -0.225003
    33  C    0.130738
    34  H    0.022007
    35  H    0.028443
    36  H    0.028566
    37  H    0.024269
    38  H    0.056785
    39  H    0.060217
    40  H    0.074032
    41  H    0.029852
    42  C   -0.117716
    43  O   -0.261820
    44  C    0.173253
    45  H    0.132466
    46  N   -0.125071
    47  O   -0.343541
    48  C    0.341383
    49  H    0.044125
    50  C    0.161766
    51  C    0.039536
    52  N   -0.279625
    53  H    0.035580
    54  H    0.038585
    55  H    0.029379
    56  H    0.118397
    57  H    0.116067
    58  N   -0.058930
    59  C    0.087330
    60  C    0.251599
    61  N   -0.275493
    62  H    0.042693
    63  C    0.167486
    64  N   -0.309113
    65  H    0.038910
    66  C    0.139255
    67  N   -0.266038
    68  C    0.028356
    69  C    0.179058
    70  N   -0.314086
 Sum of Mulliken charges =  -0.00000

 Dipole moment (field-independent basis, Debye):
    X=             -9.0841    Y=              5.6442    Z=             -1.4412  Tot=             10.7914
 Quadrupole moment (field-independent basis, Debye-Ang):
   XX=           -164.4635   YY=           -211.8211   ZZ=           -252.8632
   XY=              5.6321   XZ=             -8.5710   YZ=              5.4223

 Normal termination of Gaussian 16 at Thu Jan 25 20:15:29 2018.
