 Gaussian 16, Revision A.03,
 Gaussian 16:  EM64L-G16RevA.03 25-Dec-2016

 ---------------------------------------
 #p wb97xd/cc-pvdz sp scf=(maxcycles=20)
 ---------------------------------------

 ------------------
 Base pair stacking
 ------------------
 Symbolic Z-matrix:
 Charge =  0 Multiplicity = 1

                         Standard orientation:
 ---------------------------------------------------------------------
 Center     Atomic      Atomic             Coordinates (Angstroms)
 Number     Number       Type             X           Y           Z
 ---------------------------------------------------------------------
      1          7           0        4.245486   -2.464223   -1.866611
      2          6           0        5.617980   -2.195258   -2.337726
      3          6           0        2.094141   -2.298603   -1.440502
      4          7           0        2.505686   -3.506577   -0.896311
      5          6           0        3.785320   -3.558008   -1.174809
      6          1           0        4.447845   -4.378223   -0.896858
      7          7           0        0.774767   -0.459396   -2.103492
      8          6           0        1.888848    0.048916   -2.640166
      9          1           0        1.771200    1.016281   -3.126609
     10          7           0        3.120659   -0.455938   -2.666033
     11          6           0        3.155523   -1.644924   -2.041905
     12          6           0        0.842793   -1.657267   -1.482560
     13          7           0       -0.268231   -2.166323   -0.946221
     14          1           0       -0.264409   -3.050103   -0.477025
     15          1           0       -1.141795   -1.681921   -0.995094
     16          1           0        5.904135   -2.919091   -2.965717
     17          1           0        5.642141   -1.315452   -2.811504
     18          1           0        6.241552   -2.168428   -1.556425
     19          7           0        4.805821    3.101167    0.595581
     20          6           0        3.506033    2.739641    0.856161
     21          6           0        5.270176    4.474814    0.316016
     22          7           0        0.166298    3.604053    1.257029
     23          1           0       -0.695676    3.141724    1.463186
     24          1           0        0.127777    4.593512    1.114886
     25          7           0        2.443243    3.571848    0.900250
     26          6           0        1.322416    2.928387    1.174660
     27          7           0        1.246076    1.573612    1.389775
     28          1           0        0.346145    1.166776    1.593656
     29          6           0        2.326628    0.698026    1.349367
     30          8           0        2.149658   -0.508529    1.558258
     31          6           0        3.537698    1.374724    1.055650
     32          7           0        4.831325    0.889118    0.922975
     33          6           0        5.547298    1.946259    0.650868
     34          1           0        6.624478    1.939757    0.480776
     35          1           0        5.688906    4.508820   -0.590809
     36          1           0        4.491522    5.100172    0.345966
     37          1           0        5.942117    4.747722    1.003637
     38          1           0       -4.501553   -0.331054    1.923951
     39          1           0       -4.161595   -0.347393    3.652761
     40          1           0       -3.343812    0.812258    2.605002
     41          1           0       -2.077722   -4.469359    2.306107
     42          6           0       -1.880870   -3.397594    2.277540
     43          8           0        0.433228   -3.648291    1.820118
     44          6           0       -0.550762   -2.936622    2.020337
     45          1           0        0.514312   -1.199763    1.827317
     46          7           0       -0.411198   -1.563468    2.005875
     47          8           0       -1.174834    0.568442    2.176188
     48          6           0       -1.396062   -0.629346    2.208367
     49          1           0       -3.890732   -2.809691    2.678307
     50          6           0       -2.862502   -2.510782    2.478943
     51          6           0       -3.735986   -0.191609    2.672635
     52          7           0       -2.651357   -1.151754    2.450279
     53          1           0       -5.868336    3.759497   -2.970829
     54          1           0       -4.415057    3.905576   -2.243697
     55          1           0       -5.778723    4.262637   -1.420913
     56          1           0       -3.797409   -2.767048   -0.110597
     57          1           0       -5.425971   -2.263882   -0.179216
     58          7           0       -4.458525   -2.042940   -0.307443
     59          6           0       -4.068412   -0.836009   -0.722532
     60          6           0       -4.402149    1.410150   -1.433243
     61          7           0       -3.096133    1.678561   -1.596647
     62          1           0       -1.282860    0.743993   -1.398569
     63          6           0       -2.358853    0.612213   -1.292989
     64          7           0       -2.747684   -0.597502   -0.877070
     65          1           0       -7.586505    1.968753   -1.429175
     66          6           0       -6.589687    1.534689   -1.346194
     67          7           0       -6.341291    0.306690   -0.961475
     68          6           0       -4.957933    0.214602   -1.012199
     69          6           0       -5.373972    3.658501   -2.107473
     70          7           0       -5.462140    2.259008   -1.647391
 ---------------------------------------------------------------------

 SCF Done:  E(RwB97XD) =  -2048.74013830     A.U. after   15 cycles

 The electronic state is 1-A.
 Alpha  occ. eigenvalues --  -19.25590 -19.21844 -19.20784 -14.52314 -14.52247
 Alpha  occ. eigenvalues --  -14.49138 -14.48874 -14.47630 -14.47508 -14.47069
 Alpha  occ. eigenvalues --  -14.46891 -14.45293 -14.44763 -14.44477 -14.42273
 Alpha  occ. eigenvalues --  -14.42268 -14.41279 -14.40323 -14.40159 -14.39959
 Alpha  occ. eigenvalues --  -10.45219 -10.41481 -10.40295 -10.39906 -10.38428
 Alpha  occ. eigenvalues --  -10.37975 -10.37889 -10.37244 -10.35945 -10.35066
 Alpha  occ. eigenvalues --  -10.34854 -10.34656 -10.33696 -10.33674 -10.32973
 Alpha  occ. eigenvalues --  -10.32799 -10.32512 -10.32499 -10.31247 -10.31237
 Alpha  occ. eigenvalues --  -10.29784 -10.28413 -10.27740  -1.19149  -1.15119
 Alpha  occ. eigenvalues --   -1.13421  -1.12872  -1.10887  -1.10286  -1.09670
 Alpha  occ. eigenvalues --   -1.09121  -1.08777  -1.05152  -1.04593  -1.02209
 Alpha  occ. eigenvalues --   -1.00928  -1.00070  -0.99970  -0.98796  -0.97138
 Alpha  occ. eigenvalues --   -0.96919  -0.95966  -0.92299  -0.91102  -0.87650
 Alpha  occ. eigenvalues --   -0.85802  -0.84432  -0.83375  -0.83012  -0.82809
 Alpha  occ. eigenvalues --   -0.81363  -0.78807  -0.77191  -0.74971  -0.74897
 Alpha  occ. eigenvalues --   -0.73862  -0.73170  -0.72296  -0.70608  -0.70357
 Alpha  occ. eigenvalues --   -0.67625  -0.67039  -0.66419  -0.65712  -0.64593
 Alpha  occ. eigenvalues --   -0.64392  -0.63836  -0.62824  -0.62188  -0.62010
 Alpha  occ. eigenvalues --   -0.60725  -0.60290  -0.59755  -0.59505  -0.59341
 Alpha  occ. eigenvalues --   -0.59173  -0.58584  -0.56926  -0.56022  -0.55928
 Alpha  occ. eigenvalues --   -0.55315  -0.55198  -0.55114  -0.54621  -0.54355
 Alpha  occ. eigenvalues --   -0.53765  -0.53700  -0.53632  -0.53198  -0.52841
 Alpha  occ. eigenvalues --   -0.52807  -0.52252  -0.50872  -0.50389  -0.50037
 Alpha  occ. eigenvalues --   -0.49837  -0.49535  -0.49468  -0.49163  -0.48935
 Alpha  occ. eigenvalues --   -0.48397  -0.48294  -0.48070  -0.47863  -0.47385
 Alpha  occ. eigenvalues --   -0.46180  -0.45719  -0.45285  -0.44452  -0.43795
 Alpha  occ. eigenvalues --   -0.40692  -0.40609  -0.39271  -0.37912  -0.37666
 Alpha  occ. eigenvalues --   -0.37574  -0.37507  -0.36312  -0.35634  -0.34961
 Alpha  occ. eigenvalues --   -0.34521  -0.34258  -0.33143  -0.32882  -0.32812
 Alpha  occ. eigenvalues --   -0.32669  -0.32581  -0.32103  -0.31898  -0.30357
 Alpha  occ. eigenvalues --   -0.30125  -0.29786  -0.25874  -0.25158
 Alpha virt. eigenvalues --    0.02830   0.04106   0.06892   0.08428   0.08726
 Alpha virt. eigenvalues --    0.09076   0.09557   0.10577   0.11198   0.11595
 Alpha virt. eigenvalues --    0.13779   0.14252   0.14475   0.15100   0.15319

 Mulliken charges:
               1
     1  N   -0.312653
     2  C    0.183496
     3  C    0.054936
     4  N   -0.247653
     5  C    0.142927
     6  H    0.025816
     7  N   -0.300967
     8  C    0.132761
     9  H    0.009533
    10  N   -0.284482
    11  C    0.259249
    12  C    0.091016
    13  N   -0.069609
    14  H    0.112041
    15  H    0.082107
    16  H    0.019743
    17  H    0.031910
    18  H    0.031388
    19  N   -0.311252
    20  C    0.250544
    21  C    0.180793
    22  N   -0.123680
    23  H    0.118411
    24  H    0.118524
    25  N   -0.312176
    26  C    0.249764
    27  N   -0.151248
    28  H    0.121187
    29  C    0.197441
    30  O   -0.320172
    31  C   -0.014250
    32  N   -0.230850
    33  C    0.126281
    34  H    0.024227
    35  H    0.027907
    36  H    0.029966
    37  H    0.025563
    38  H    0.056363
    39  H    0.058723
    40  H    0.075252
    41  H    0.029452
    42  C   -0.112192
    43  O   -0.246912
    44  C    0.144845
    45  H    0.136744
    46  N   -0.118551
    47  O   -0.352531
    48  C    0.355092
    49  H    0.041550
    50  C    0.155336
    51  C    0.041447
    52  N   -0.279462
    53  H    0.033739
    54  H    0.042442
    55  H    0.029458
    56  H    0.115070
    57  H    0.119071
    58  N   -0.067534
    59  C    0.088713
    60  C    0.250103
    61  N   -0.272328
    62  H    0.036658
    63  C    0.179037
    64  N   -0.318745
    65  H    0.038793
    66  C    0.142879
    67  N   -0.263536
    68  C    0.025248
    69  C    0.179992
    70  N   -0.312754
 Sum of Mulliken charges =  -0.00000

 Dipole moment (field-independent basis, Debye):
    X=             -8.5648    Y=              6.4833    Z=              0.8084  Tot=             10.7723
 Quadrupole moment (field-independent basis, Debye-Ang):
   XX=           -174.2770   YY=           -210.5351   ZZ=           -245.5793
   XY=              5.9301   XZ=            -17.0389   YZ=             -1.1706

 Normal termination of Gaussian 16 at Fri Jan 26 12:27:11 2018.
