 Gaussian 16, Revision A.03,
 Gaussian 16:  EM64L-G16RevA.03 25-Dec-2016

 ---------------------------------------
 #p wb97xd/cc-pvdz sp scf=(maxcycles=20)
 ---------------------------------------

 ------------------
 Base pair stacking
 ------------------
 Symbolic Z-matrix:
 Charge =  0 Multiplicity = 1

                         Standard orientation:
 ---------------------------------------------------------------------
 Center     Atomic      Atomic             Coordinates (Angstroms)
 Number     Number       Type             X           Y           Z
 ---------------------------------------------------------------------
      1          7           0        5.840634   -1.746929   -1.026878
      2          6           0        7.241066   -1.294593   -0.916496
      3          6           0        3.649597   -1.791008   -1.213312
      4          7           0        4.060473   -3.114636   -1.150782
      5          6           0        5.364041   -3.035107   -1.040972
      6          1           0        6.033380   -3.892614   -0.965993
      7          7           0        2.318112    0.149704   -1.367331
      8          6           0        3.456917    0.845277   -1.284342
      9          1           0        3.343823    1.928072   -1.316427
     10          7           0        4.708563    0.406188   -1.168237
     11          6           0        4.735736   -0.936490   -1.138129
     12          6           0        2.379015   -1.199463   -1.334195
     13          7           0        1.243317   -1.895551   -1.416899
     14          1           0        1.240998   -2.895945   -1.396398
     15          1           0        0.356579   -1.441054   -1.502125
     16          1           0        7.771391   -1.657532   -1.682788
     17          1           0        7.271873   -0.295673   -0.934537
     18          1           0        7.632845   -1.623004   -0.057049
     19          7           0        3.230471    2.999786    1.460633
     20          6           0        1.939278    2.543743    1.346979
     21          6           0        3.670568    4.387537    1.213329
     22          7           0       -1.408867    3.136942    0.640061
     23          1           0       -2.261348    2.615452    0.616175
     24          1           0       -1.464157    4.107786    0.405303
     25          7           0        0.864331    3.280844    0.993121
     26          6           0       -0.243438    2.561105    0.971859
     27          7           0       -0.296569    1.221858    1.273693
     28          1           0       -1.187883    0.752056    1.231211
     29          6           0        0.796836    0.443438    1.640269
     30          8           0        0.640742   -0.757694    1.892546
     31          6           0        1.994109    1.202833    1.667547
     32          7           0        3.293567    0.824664    1.976254
     33          6           0        3.990204    1.920318    1.840367
     34          1           0        5.065459    1.996981    2.005375
     35          1           0        4.345581    4.398600    0.476423
     36          1           0        2.882732    4.942961    0.950458
     37          1           0        4.078932    4.762650    2.044797
     38          1           0       -5.796114   -1.139427    0.211774
     39          1           0       -6.005735   -1.012702    1.956668
     40          1           0       -4.979683    0.142959    1.106358
     41          1           0       -3.351773   -5.015778    1.676591
     42          6           0       -3.223908   -3.935089    1.613465
     43          8           0       -0.870586   -4.011713    1.901753
     44          6           0       -1.911278   -3.377310    1.730650
     45          1           0       -0.950693   -1.570287    1.714807
     46          7           0       -1.861197   -2.001118    1.636716
     47          8           0       -2.773346    0.062336    1.377272
     48          6           0       -2.917496   -1.145524    1.447678
     49          1           0       -5.292337   -3.500351    1.333404
     50          6           0       -4.273813   -3.126311    1.428596
     51          6           0       -5.309280   -0.884789    1.141406
     52          7           0       -4.150514   -1.758817    1.344095
     53          1           0       -4.367011    4.307210   -2.207951
     54          1           0       -3.182510    4.109567   -1.103418
     55          1           0       -4.746830    4.057424   -0.640539
     56          1           0       -2.272562   -2.808134   -1.982603
     57          1           0       -3.879409   -2.327903   -2.294884
     58          7           0       -2.948963   -2.072986   -2.029362
     59          6           0       -2.625606   -0.808588   -1.750249
     60          6           0       -3.054260    1.516780   -1.484410
     61          7           0       -1.796807    1.829889   -1.130549
     62          1           0        0.009636    0.906200   -0.840465
     63          6           0       -1.030479    0.741091   -1.118237
     64          7           0       -1.352468   -0.526167   -1.397476
     65          1           0       -6.176431    2.013883   -2.160478
     66          6           0       -5.187058    1.588923   -1.988736
     67          7           0       -4.888600    0.319354   -2.118291
     68          6           0       -3.539236    0.259870   -1.801421
     69          6           0       -4.103445    3.827711   -1.370924
     70          7           0       -4.124286    2.371125   -1.607422
 ---------------------------------------------------------------------

 SCF Done:  E(RwB97XD) =  -2048.69449280     A.U. after   15 cycles

 The electronic state is 1-A.
 Alpha  occ. eigenvalues --  -19.25686 -19.21759 -19.20423 -14.52717 -14.52271
 Alpha  occ. eigenvalues --  -14.48506 -14.48488 -14.48383 -14.47653 -14.46526
 Alpha  occ. eigenvalues --  -14.45575 -14.45479 -14.44162 -14.43367 -14.42364
 Alpha  occ. eigenvalues --  -14.41638 -14.41187 -14.40670 -14.40476 -14.40086
 Alpha  occ. eigenvalues --  -10.45307 -10.40494 -10.39896 -10.39859 -10.38080
 Alpha  occ. eigenvalues --  -10.37936 -10.37696 -10.37138 -10.35412 -10.35340
 Alpha  occ. eigenvalues --  -10.34822 -10.34681 -10.33988 -10.33862 -10.33101
 Alpha  occ. eigenvalues --  -10.32981 -10.32873 -10.32543 -10.31027 -10.30756
 Alpha  occ. eigenvalues --  -10.30703 -10.28319 -10.27737  -1.19295  -1.15364
 Alpha  occ. eigenvalues --   -1.13033  -1.12796  -1.11079  -1.10349  -1.09377
 Alpha  occ. eigenvalues --   -1.09143  -1.08286  -1.04953  -1.04840  -1.02274
 Alpha  occ. eigenvalues --   -1.01218  -1.00344  -0.99503  -0.98307  -0.96865
 Alpha  occ. eigenvalues --   -0.96646  -0.96312  -0.92538  -0.90914  -0.87792
 Alpha  occ. eigenvalues --   -0.86324  -0.83817  -0.83699  -0.83355  -0.82283
 Alpha  occ. eigenvalues --   -0.82103  -0.78731  -0.77127  -0.75183  -0.74310
 Alpha  occ. eigenvalues --   -0.73346  -0.73141  -0.72773  -0.70896  -0.70625
 Alpha  occ. eigenvalues --   -0.67147  -0.67024  -0.66358  -0.66184  -0.64545
 Alpha  occ. eigenvalues --   -0.64238  -0.63550  -0.62730  -0.62603  -0.61440
 Alpha  occ. eigenvalues --   -0.60909  -0.60405  -0.60337  -0.59570  -0.59433
 Alpha  occ. eigenvalues --   -0.59334  -0.58320  -0.56886  -0.56309  -0.56073
 Alpha  occ. eigenvalues --   -0.55933  -0.55744  -0.55371  -0.55022  -0.54402
 Alpha  occ. eigenvalues --   -0.54038  -0.53421  -0.53296  -0.53082  -0.52712
 Alpha  occ. eigenvalues --   -0.52585  -0.52132  -0.51555  -0.50581  -0.50021
 Alpha  occ. eigenvalues --   -0.49947  -0.49633  -0.49408  -0.49066  -0.48785
 Alpha  occ. eigenvalues --   -0.48559  -0.48040  -0.47836  -0.47483  -0.47146
 Alpha  occ. eigenvalues --   -0.46621  -0.45886  -0.44807  -0.44434  -0.43750
 Alpha  occ. eigenvalues --   -0.41373  -0.40935  -0.39329  -0.38168  -0.37906
 Alpha  occ. eigenvalues --   -0.36984  -0.36972  -0.36820  -0.35702  -0.34940
 Alpha  occ. eigenvalues --   -0.34372  -0.33482  -0.33367  -0.32927  -0.32414
 Alpha  occ. eigenvalues --   -0.32158  -0.31797  -0.31590  -0.30818  -0.30597
 Alpha  occ. eigenvalues --   -0.30226  -0.29677  -0.25757  -0.24321
 Alpha virt. eigenvalues --    0.03123   0.04134   0.06943   0.08141   0.08456
 Alpha virt. eigenvalues --    0.09488   0.09979   0.10575   0.11362   0.11708
 Alpha virt. eigenvalues --    0.12146   0.13924   0.14552   0.14771   0.14987

 Mulliken charges:
               1
     1  N   -0.313635
     2  C    0.181989
     3  C    0.042068
     4  N   -0.261443
     5  C    0.135989
     6  H    0.026033
     7  N   -0.292576
     8  C    0.147307
     9  H    0.008154
    10  N   -0.287855
    11  C    0.257259
    12  C    0.117615
    13  N   -0.061637
    14  H    0.107641
    15  H    0.082777
    16  H    0.023697
    17  H    0.032139
    18  H    0.027836
    19  N   -0.305626
    20  C    0.233553
    21  C    0.180855
    22  N   -0.051181
    23  H    0.110351
    24  H    0.111535
    25  N   -0.300449
    26  C    0.197548
    27  N   -0.145589
    28  H    0.127885
    29  C    0.171027
    30  O   -0.322097
    31  C    0.004743
    32  N   -0.221676
    33  C    0.127355
    34  H    0.021754
    35  H    0.028353
    36  H    0.027431
    37  H    0.024120
    38  H    0.059809
    39  H    0.058531
    40  H    0.073204
    41  H    0.030801
    42  C   -0.112936
    43  O   -0.261730
    44  C    0.174772
    45  H    0.132572
    46  N   -0.126945
    47  O   -0.343875
    48  C    0.344379
    49  H    0.046153
    50  C    0.164583
    51  C    0.042325
    52  N   -0.288391
    53  H    0.040125
    54  H    0.019810
    55  H    0.033605
    56  H    0.119926
    57  H    0.116133
    58  N   -0.064677
    59  C    0.080782
    60  C    0.254691
    61  N   -0.306731
    62  H    0.046259
    63  C    0.167008
    64  N   -0.298830
    65  H    0.036971
    66  C    0.134963
    67  N   -0.264196
    68  C    0.036047
    69  C    0.179175
    70  N   -0.317566
 Sum of Mulliken charges =  -0.00000

 Dipole moment (field-independent basis, Debye):
    X=             -8.7974    Y=              5.3486    Z=             -2.9221  Tot=             10.7024
 Quadrupole moment (field-independent basis, Debye-Ang):
   XX=           -159.5865   YY=           -214.0699   ZZ=           -255.7367
   XY=              3.8336   XZ=             -1.7930   YZ=              9.8448

 Normal termination of Gaussian 16 at Fri Jan 26 03:23:40 2018.
