 Gaussian 16, Revision A.03,
 Gaussian 16:  EM64L-G16RevA.03 25-Dec-2016

 ---------------------------------------
 #p wb97xd/cc-pvdz sp scf=(maxcycles=20)
 ---------------------------------------

 ------------------
 Base pair stacking
 ------------------
 Symbolic Z-matrix:
 Charge =  0 Multiplicity = 1

                         Standard orientation:
 ---------------------------------------------------------------------
 Center     Atomic      Atomic             Coordinates (Angstroms)
 Number     Number       Type             X           Y           Z
 ---------------------------------------------------------------------
      1          7           0       -7.228717   -1.567068    0.020558
      2          6           0       -8.630833   -1.115738   -0.070957
      3          6           0       -5.055500   -1.636886    0.351567
      4          7           0       -5.422004   -2.900873   -0.087481
      5          6           0       -6.716618   -2.808217   -0.269332
      6          1           0       -7.353671   -3.622008   -0.616969
      7          7           0       -3.795452    0.207184    1.109597
      8          6           0       -4.945725    0.888455    1.127945
      9          1           0       -4.866984    1.925254    1.452149
     10          7           0       -6.172893    0.483173    0.807451
     11          6           0       -6.158461   -0.803891    0.423153
     12          6           0       -3.814260   -1.085683    0.718178
     13          7           0       -2.667053   -1.767401    0.699202
     14          1           0       -2.633933   -2.726645    0.416416
     15          1           0       -1.802076   -1.342776    0.966850
     16          1           0       -9.202042   -1.673798    0.531109
     17          1           0       -8.692151   -0.157550    0.206948
     18          1           0       -8.952373   -1.208975   -1.013249
     19          7           0       -1.554083    3.041248   -1.914009
     20          6           0       -0.294154    2.552621   -1.665236
     21          6           0       -1.923792    4.470497   -1.949559
     22          7           0        3.059016    3.105130   -0.949207
     23          1           0        3.880173    2.556699   -0.793765
     24          1           0        3.160981    4.099016   -0.898973
     25          7           0        0.808904    3.290140   -1.413509
     26          6           0        1.873933    2.534360   -1.213202
     27          7           0        1.861778    1.161203   -1.255729
     28          1           0        2.723995    0.665079   -1.090188
     29          6           0        0.738378    0.381648   -1.512924
     30          8           0        0.835153   -0.851696   -1.528642
     31          6           0       -0.413596    1.179554   -1.730148
     32          7           0       -1.722168    0.813522   -2.013964
     33          6           0       -2.360750    1.947701   -2.114242
     34          1           0       -3.424673    2.044031   -2.333514
     35          1           0       -2.618958    4.654039   -1.255400
     36          1           0       -1.114616    5.026599   -1.764458
     37          1           0       -2.285608    4.700547   -2.852314
     38          1           0        7.187631   -1.221133    0.449597
     39          1           0        7.456204   -1.438067   -1.278257
     40          1           0        6.470739   -0.093460   -0.701833
     41          1           0        4.577200   -5.181056   -0.357425
     42          6           0        4.507606   -4.103085   -0.503576
     43          8           0        2.163355   -4.118140   -0.866072
     44          6           0        3.232019   -3.514328   -0.775766
     45          1           0        2.373040   -1.692451   -1.138030
     46          7           0        3.255504   -2.144519   -0.944102
     47          8           0        4.272457   -0.116302   -1.040662
     48          6           0        4.351466   -1.321153   -0.877115
     49          1           0        6.587612   -3.724529   -0.227792
     50          6           0        5.594711   -3.326105   -0.432144
     51          6           0        6.743757   -1.124022   -0.530013
     52          7           0        5.544933   -1.963060   -0.611010
     53          1           0        2.690418    4.061046    3.510327
     54          1           0        1.591531    4.150790    2.307626
     55          1           0        3.184993    4.238701    1.965246
     56          1           0        0.826526   -2.761781    1.265218
     57          1           0        2.393097   -2.365169    1.811702
     58          7           0        1.476176   -2.058447    1.554043
     59          6           0        1.135912   -0.768569    1.594173
     60          6           0        1.513440    1.548448    1.982290
     61          7           0        0.274850    1.931375    1.630602
     62          1           0       -1.479277    1.099260    0.973899
     63          6           0       -0.456483    0.876996    1.275153
     64          7           0       -0.117502   -0.415677    1.234288
     65          1           0        4.565380    1.880293    2.996052
     66          6           0        3.603173    1.506006    2.645312
     67          7           0        3.333882    0.244469    2.413625
     68          6           0        2.012019    0.257393    1.992617
     69          6           0        2.499622    3.817473    2.559400
     70          7           0        2.546822    2.350502    2.405162
 ---------------------------------------------------------------------

 SCF Done:  E(RwB97XD) =  -2048.74344402     A.U. after   15 cycles

 The electronic state is 1-A.
 Alpha  occ. eigenvalues --  -19.26220 -19.22737 -19.21107 -14.52896 -14.50861
 Alpha  occ. eigenvalues --  -14.49088 -14.48832 -14.48408 -14.47674 -14.47522
 Alpha  occ. eigenvalues --  -14.46067 -14.43941 -14.42586 -14.42353 -14.42243
 Alpha  occ. eigenvalues --  -14.42036 -14.41526 -14.41080 -14.40876 -14.40104
 Alpha  occ. eigenvalues --  -10.45912 -10.41841 -10.40784 -10.38726 -10.38306
 Alpha  occ. eigenvalues --  -10.37958 -10.36462 -10.35623 -10.35410 -10.35377
 Alpha  occ. eigenvalues --  -10.34702 -10.34177 -10.33897 -10.33554 -10.33414
 Alpha  occ. eigenvalues --  -10.33058 -10.32643 -10.31584 -10.31116 -10.30975
 Alpha  occ. eigenvalues --  -10.30858 -10.28592 -10.28508  -1.19836  -1.13815
 Alpha  occ. eigenvalues --   -1.13714  -1.13471  -1.11420  -1.10965  -1.09788
 Alpha  occ. eigenvalues --   -1.09204  -1.07290  -1.04957  -1.03112  -1.02834
 Alpha  occ. eigenvalues --   -1.00537  -1.00380  -0.99325  -0.99002  -0.96998
 Alpha  occ. eigenvalues --   -0.96919  -0.94881  -0.92587  -0.91540  -0.85967
 Alpha  occ. eigenvalues --   -0.84507  -0.84377  -0.84082  -0.83977  -0.82826
 Alpha  occ. eigenvalues --   -0.82345  -0.79371  -0.75281  -0.75058  -0.74267
 Alpha  occ. eigenvalues --   -0.73872  -0.72973  -0.72898  -0.71056  -0.68659
 Alpha  occ. eigenvalues --   -0.67967  -0.67037  -0.66292  -0.65032  -0.64903
 Alpha  occ. eigenvalues --   -0.64177  -0.63131  -0.62745  -0.62384  -0.62358
 Alpha  occ. eigenvalues --   -0.60155  -0.59992  -0.59973  -0.59131  -0.58815
 Alpha  occ. eigenvalues --   -0.58560  -0.57950  -0.56904  -0.56457  -0.56430
 Alpha  occ. eigenvalues --   -0.56382  -0.55322  -0.54861  -0.54645  -0.54082
 Alpha  occ. eigenvalues --   -0.53796  -0.53676  -0.53356  -0.52852  -0.52255
 Alpha  occ. eigenvalues --   -0.51998  -0.51694  -0.51186  -0.50752  -0.50599
 Alpha  occ. eigenvalues --   -0.50172  -0.49891  -0.49337  -0.49118  -0.48984
 Alpha  occ. eigenvalues --   -0.48649  -0.48542  -0.48069  -0.47886  -0.47481
 Alpha  occ. eigenvalues --   -0.46951  -0.45261  -0.45108  -0.44526  -0.43097
 Alpha  occ. eigenvalues --   -0.41161  -0.39835  -0.39131  -0.37768  -0.37699
 Alpha  occ. eigenvalues --   -0.37184  -0.36723  -0.35852  -0.35671  -0.35137
 Alpha  occ. eigenvalues --   -0.33862  -0.33563  -0.33520  -0.33172  -0.32962
 Alpha  occ. eigenvalues --   -0.32541  -0.32425  -0.32241  -0.32140  -0.30978
 Alpha  occ. eigenvalues --   -0.30305  -0.28182  -0.25905  -0.25754
 Alpha virt. eigenvalues --    0.02523   0.05674   0.07935   0.07982   0.08509
 Alpha virt. eigenvalues --    0.09047   0.09471   0.11014   0.11535   0.12373
 Alpha virt. eigenvalues --    0.12801   0.13982   0.14338   0.14781   0.15509

 Mulliken charges:
               1
     1  N   -0.310755
     2  C    0.181054
     3  C    0.027753
     4  N   -0.258566
     5  C    0.132964
     6  H    0.026548
     7  N   -0.291453
     8  C    0.131475
     9  H    0.010301
    10  N   -0.289293
    11  C    0.241333
    12  C    0.122049
    13  N   -0.053739
    14  H    0.108979
    15  H    0.090372
    16  H    0.025548
    17  H    0.035266
    18  H    0.025664
    19  N   -0.309872
    20  C    0.260845
    21  C    0.182572
    22  N   -0.118843
    23  H    0.116479
    24  H    0.118770
    25  N   -0.298238
    26  C    0.219160
    27  N   -0.125749
    28  H    0.121096
    29  C    0.171689
    30  O   -0.322790
    31  C   -0.021018
    32  N   -0.216560
    33  C    0.129589
    34  H    0.031721
    35  H    0.030610
    36  H    0.027463
    37  H    0.025308
    38  H    0.062625
    39  H    0.060797
    40  H    0.075249
    41  H    0.033561
    42  C   -0.108199
    43  O   -0.271479
    44  C    0.158882
    45  H    0.135551
    46  N   -0.134527
    47  O   -0.350073
    48  C    0.363617
    49  H    0.050536
    50  C    0.174529
    51  C    0.042573
    52  N   -0.297840
    53  H    0.029964
    54  H    0.044375
    55  H    0.007784
    56  H    0.126541
    57  H    0.112047
    58  N   -0.054252
    59  C    0.093641
    60  C    0.234844
    61  N   -0.263114
    62  H    0.037443
    63  C    0.165600
    64  N   -0.297230
    65  H    0.025857
    66  C    0.124164
    67  N   -0.266843
    68  C    0.026881
    69  C    0.183709
    70  N   -0.304943
 Sum of Mulliken charges =  -0.00000

 Dipole moment (field-independent basis, Debye):
    X=              9.1135    Y=              5.0386    Z=              1.2793  Tot=             10.4919
 Quadrupole moment (field-independent basis, Debye-Ang):
   XX=           -147.7813   YY=           -214.1122   ZZ=           -248.4152
   XY=              0.1469   XZ=             13.7370   YZ=             -6.4994

 Normal termination of Gaussian 16 at Fri Jan 26 07:11:25 2018.
