 Gaussian 16, Revision A.03,
 Gaussian 16:  EM64L-G16RevA.03 25-Dec-2016

 ---------------------------------------
 #p wb97xd/cc-pvdz sp scf=(maxcycles=20)
 ---------------------------------------

 ------------------
 Base pair stacking
 ------------------
 Symbolic Z-matrix:
 Charge =  0 Multiplicity = 1

                         Standard orientation:
 ---------------------------------------------------------------------
 Center     Atomic      Atomic             Coordinates (Angstroms)
 Number     Number       Type             X           Y           Z
 ---------------------------------------------------------------------
      1          7           0       -7.109349   -1.600060    0.174099
      2          6           0       -8.476794   -1.155690   -0.158538
      3          6           0       -4.961372   -1.633368    0.645692
      4          7           0       -5.381356   -2.955584    0.655256
      5          6           0       -6.658627   -2.882594    0.370745
      6          1           0       -7.326050   -3.741143    0.290766
      7          7           0       -3.630662    0.308808    0.787520
      8          6           0       -4.738411    0.997050    0.492909
      9          1           0       -4.613543    2.077597    0.437421
     10          7           0       -5.971449    0.553009    0.257667
     11          6           0       -6.015416   -0.786337    0.350646
     12          6           0       -3.707787   -1.037187    0.873768
     13          7           0       -2.603102   -1.725959    1.167743
     14          1           0       -2.613736   -2.723769    1.241846
     15          1           0       -1.727682   -1.268326    1.323854
     16          1           0       -9.106748   -1.442260    0.563420
     17          1           0       -8.494122   -0.159494   -0.238616
     18          1           0       -8.759990   -1.563153   -1.026733
     19          7           0       -1.818034    2.831092   -1.694520
     20          6           0       -0.554243    2.379231   -1.400077
     21          6           0       -2.286020    4.222515   -1.534391
     22          7           0        2.669255    2.990626   -0.261213
     23          1           0        3.510308    2.470992   -0.113403
     24          1           0        2.693461    3.965756   -0.039255
     25          7           0        0.464171    3.124442   -0.918884
     26          6           0        1.558370    2.406943   -0.735704
     27          7           0        1.650261    1.062406   -1.002709
     28          1           0        2.527348    0.594843   -0.832214
     29          6           0        0.615218    0.275622   -1.498224
     30          8           0        0.802618   -0.929741   -1.704863
     31          6           0       -0.566824    1.032524   -1.700115
     32          7           0       -1.813431    0.646687   -2.173391
     33          6           0       -2.520950    1.743589   -2.152657
     34          1           0       -3.564240    1.815513   -2.461926
     35          1           0       -3.053853    4.246209   -0.895116
     36          1           0       -1.540081    4.783936   -1.178511
     37          1           0       -2.578707    4.581504   -2.419990
     38          1           0        6.955165   -1.270257    0.831668
     39          1           0        7.397284   -1.175622   -0.871334
     40          1           0        6.267463   -0.005956   -0.188131
     41          1           0        4.725913   -5.176905   -0.875685
     42          6           0        4.591755   -4.095426   -0.850412
     43          8           0        2.298372   -4.181030   -1.450551
     44          6           0        3.307282   -3.541956   -1.153119
     45          1           0        2.354997   -1.736436   -1.300001
     46          7           0        3.246358   -2.164337   -1.092376
     47          8           0        4.117409   -0.095007   -0.751249
     48          6           0        4.268534   -1.303749   -0.779184
     49          1           0        6.604273   -3.652372   -0.303328
     50          6           0        5.608117   -3.281740   -0.541338
     51          6           0        6.597798   -1.033678   -0.159483
     52          7           0        5.475901   -1.913109   -0.499606
     53          1           0        2.954974    4.505474    2.091230
     54          1           0        1.919230    4.207435    0.866276
     55          1           0        3.529043    4.106320    0.616598
     56          1           0        0.796357   -2.592070    2.266738
     57          1           0        2.357056   -2.089565    2.737715
     58          7           0        1.472502   -1.858034    2.331292
     59          6           0        1.207390   -0.624900    1.895071
     60          6           0        1.702771    1.663154    1.469503
     61          7           0        0.506220    1.945277    0.928117
     62          1           0       -1.262144    1.004097    0.494925
     63          6           0       -0.269025    0.862775    0.919185
     64          7           0       -0.005328   -0.373177    1.355618
     65          1           0        4.719595    2.212121    2.493997
     66          6           0        3.753989    1.775992    2.236442
     67          7           0        3.421633    0.525513    2.445075
     68          6           0        2.123395    0.440555    1.963327
     69          6           0        2.793680    3.949319    1.275961
     70          7           0        2.761304    2.521811    1.649032
 ---------------------------------------------------------------------

 SCF Done:  E(RwB97XD) =  -2048.37193365     A.U. after   16 cycles

 The electronic state is 1-A.
 Alpha  occ. eigenvalues --  -19.25855 -19.21927 -19.20485 -14.52447 -14.52271
 Alpha  occ. eigenvalues --  -14.49255 -14.48959 -14.47880 -14.47381 -14.45946
 Alpha  occ. eigenvalues --  -14.44414 -14.44256 -14.43227 -14.42788 -14.42352
 Alpha  occ. eigenvalues --  -14.41973 -14.41641 -14.41448 -14.41003 -14.40674
 Alpha  occ. eigenvalues --  -10.45493 -10.40949 -10.40060 -10.39020 -10.38123
 Alpha  occ. eigenvalues --  -10.37785 -10.37162 -10.36149 -10.35998 -10.35975
 Alpha  occ. eigenvalues --  -10.35308 -10.34622 -10.34361 -10.34327 -10.33902
 Alpha  occ. eigenvalues --  -10.33722 -10.33661 -10.31832 -10.31290 -10.31103
 Alpha  occ. eigenvalues --  -10.31094 -10.29109 -10.28620  -1.19445  -1.18525
 Alpha  occ. eigenvalues --   -1.13286  -1.12959  -1.11867  -1.10870  -1.10714
 Alpha  occ. eigenvalues --   -1.09327  -1.08903  -1.05998  -1.05524  -1.03621
 Alpha  occ. eigenvalues --   -1.02489  -1.00996  -0.98809  -0.98468  -0.97475
 Alpha  occ. eigenvalues --   -0.96912  -0.96059  -0.93181  -0.91489  -0.91046
 Alpha  occ. eigenvalues --   -0.86481  -0.84440  -0.84286  -0.83689  -0.82780
 Alpha  occ. eigenvalues --   -0.82721  -0.78890  -0.76972  -0.75839  -0.74934
 Alpha  occ. eigenvalues --   -0.74384  -0.73450  -0.73369  -0.71794  -0.71606
 Alpha  occ. eigenvalues --   -0.69153  -0.67781  -0.66839  -0.66561  -0.65907
 Alpha  occ. eigenvalues --   -0.64837  -0.64326  -0.63794  -0.63255  -0.62950
 Alpha  occ. eigenvalues --   -0.61795  -0.60744  -0.60530  -0.59924  -0.59537
 Alpha  occ. eigenvalues --   -0.59479  -0.59021  -0.57113  -0.56795  -0.56729
 Alpha  occ. eigenvalues --   -0.56372  -0.55930  -0.55797  -0.54678  -0.54469
 Alpha  occ. eigenvalues --   -0.53904  -0.53357  -0.53178  -0.52827  -0.52705
 Alpha  occ. eigenvalues --   -0.52459  -0.52174  -0.51256  -0.51207  -0.50679
 Alpha  occ. eigenvalues --   -0.50230  -0.49590  -0.49452  -0.49174  -0.48905
 Alpha  occ. eigenvalues --   -0.48456  -0.48213  -0.47587  -0.47473  -0.47414
 Alpha  occ. eigenvalues --   -0.45748  -0.45607  -0.45119  -0.43981  -0.42217
 Alpha  occ. eigenvalues --   -0.41733  -0.39542  -0.39398  -0.38322  -0.37713
 Alpha  occ. eigenvalues --   -0.37380  -0.36777  -0.36063  -0.35625  -0.34080
 Alpha  occ. eigenvalues --   -0.34013  -0.33912  -0.33252  -0.33059  -0.32702
 Alpha  occ. eigenvalues --   -0.32022  -0.31929  -0.31885  -0.31390  -0.31055
 Alpha  occ. eigenvalues --   -0.30796  -0.28509  -0.26353  -0.23589
 Alpha virt. eigenvalues --    0.03135   0.03792   0.06481   0.07397   0.08409
 Alpha virt. eigenvalues --    0.08673   0.10350   0.10437   0.11073   0.12621
 Alpha virt. eigenvalues --    0.12950   0.13657   0.13899   0.14221   0.15196

 Mulliken charges:
               1
     1  N   -0.311470
     2  C    0.181017
     3  C    0.030465
     4  N   -0.260356
     5  C    0.135291
     6  H    0.028330
     7  N   -0.287635
     8  C    0.131472
     9  H    0.006345
    10  N   -0.287022
    11  C    0.245290
    12  C    0.124323
    13  N   -0.059910
    14  H    0.106986
    15  H    0.088427
    16  H    0.026008
    17  H    0.035480
    18  H    0.027492
    19  N   -0.309605
    20  C    0.223911
    21  C    0.182538
    22  N   -0.053859
    23  H    0.099788
    24  H    0.095587
    25  N   -0.223969
    26  C    0.091943
    27  N   -0.079717
    28  H    0.118037
    29  C    0.145183
    30  O   -0.319728
    31  C   -0.008917
    32  N   -0.214631
    33  C    0.129759
    34  H    0.032388
    35  H    0.028830
    36  H    0.026269
    37  H    0.025544
    38  H    0.061115
    39  H    0.059163
    40  H    0.073124
    41  H    0.032097
    42  C   -0.111817
    43  O   -0.263674
    44  C    0.178953
    45  H    0.134623
    46  N   -0.141818
    47  O   -0.347181
    48  C    0.363621
    49  H    0.047736
    50  C    0.170319
    51  C    0.044207
    52  N   -0.298746
    53  H   -0.025365
    54  H    0.017704
    55  H   -0.031771
    56  H    0.120666
    57  H    0.115678
    58  N   -0.069482
    59  C    0.106304
    60  C    0.210844
    61  N   -0.254088
    62  H    0.060931
    63  C    0.157328
    64  N   -0.295967
    65  H    0.029553
    66  C    0.100920
    67  N   -0.260689
    68  C    0.048377
    69  C    0.350283
    70  N   -0.332831
 Sum of Mulliken charges =  -0.00000

 Dipole moment (field-independent basis, Debye):
    X=              7.4068    Y=              4.9332    Z=              3.6500  Tot=              9.6187
 Quadrupole moment (field-independent basis, Debye-Ang):
   XX=           -149.8285   YY=           -218.2694   ZZ=           -254.8887
   XY=              1.2512   XZ=             12.9804   YZ=            -14.3365

 Normal termination of Gaussian 16 at Fri Jan 26 11:53:45 2018.
