 Gaussian 16, Revision A.03,
 Gaussian 16:  EM64L-G16RevA.03 25-Dec-2016

 ---------------------------------------
 #p wb97xd/cc-pvdz sp scf=(maxcycles=20)
 ---------------------------------------

 ------------------
 Base pair stacking
 ------------------
 Symbolic Z-matrix:
 Charge =  0 Multiplicity = 1

                         Standard orientation:
 ---------------------------------------------------------------------
 Center     Atomic      Atomic             Coordinates (Angstroms)
 Number     Number       Type             X           Y           Z
 ---------------------------------------------------------------------
      1          7           0        4.594827   -2.055977   -1.735251
      2          6           0        6.008489   -1.658333   -1.881747
      3          6           0        2.401521   -2.018301   -1.576195
      4          7           0        2.775869   -3.349572   -1.465207
      5          6           0        4.082272   -3.318979   -1.565483
      6          1           0        4.728144   -4.196432   -1.521992
      7          7           0        1.123240   -0.039279   -1.687531
      8          6           0        2.281880    0.609923   -1.841315
      9          1           0        2.198785    1.690669   -1.947820
     10          7           0        3.521948    0.126810   -1.883093
     11          6           0        3.511879   -1.209124   -1.743069
     12          6           0        1.146731   -1.382922   -1.549192
     13          7           0       -0.008818   -2.032749   -1.395579
     14          1           0       -0.038897   -3.027288   -1.289646
     15          1           0       -0.883374   -1.547901   -1.381141
     16          1           0        6.399789   -2.103977   -2.687029
     17          1           0        6.067023   -0.666325   -1.989530
     18          1           0        6.520563   -1.934337   -1.068370
     19          7           0        4.505386    2.968754    0.846529
     20          6           0        3.196671    2.561788    0.944919
     21          6           0        4.951314    4.338228    0.520378
     22          7           0       -0.197172    3.280036    0.778428
     23          1           0       -1.061201    2.791221    0.895722
     24          1           0       -0.253334    4.251746    0.547476
     25          7           0        2.106977    3.338349    0.761663
     26          6           0        0.984205    2.661137    0.924083
     27          7           0        0.930503    1.325563    1.241681
     28          1           0        0.027105    0.889831    1.346410
     29          6           0        2.038907    0.507044    1.434882
     30          8           0        1.880831   -0.686730    1.718894
     31          6           0        3.252406    1.220498    1.263741
     32          7           0        4.569607    0.793989    1.363486
     33          6           0        5.275606    1.862087    1.108664
     34          1           0        6.365496    1.898259    1.098687
     35          1           0        5.499367    4.321987   -0.315195
     36          1           0        4.152681    4.922556    0.382464
     37          1           0        5.501362    4.699465    1.272549
     38          1           0       -4.751924   -0.827687    1.093942
     39          1           0       -4.674181   -0.689120    2.848771
     40          1           0       -3.755592    0.424822    1.835513
     41          1           0       -2.249846   -4.790681    2.180637
     42          6           0       -2.093749   -3.715768    2.088848
     43          8           0        0.270862   -3.881005    1.997136
     44          6           0       -0.759537   -3.207955    1.989640
     45          1           0        0.252453   -1.438730    1.805113
     46          7           0       -0.674140   -1.834871    1.877435
     47          8           0       -1.538906    0.261133    1.750244
     48          6           0       -1.714604   -0.940226    1.852888
     49          1           0       -4.162750   -3.203473    2.140045
     50          6           0       -3.128980   -2.868145    2.067772
     51          6           0       -4.113206   -0.589590    1.931459
     52          7           0       -2.970171   -1.506516    1.953225
     53          1           0       -5.478622    4.328298   -1.836068
     54          1           0       -4.141420    4.167123   -0.915191
     55          1           0       -5.613987    4.220778   -0.213247
     56          1           0       -3.596502   -2.831863   -1.330837
     57          1           0       -5.216818   -2.307746   -1.430741
     58          7           0       -4.248689   -2.073715   -1.335018
     59          6           0       -3.846299   -0.806584   -1.218207
     60          6           0       -4.155335    1.549140   -1.088728
     61          7           0       -2.848715    1.833758   -0.961599
     62          1           0       -1.048646    0.857481   -0.876559
     63          6           0       -2.124172    0.716734   -0.975047
     64          7           0       -2.525320   -0.553308   -1.091950
     65          1           0       -7.328132    2.127806   -1.313818
     66          6           0       -6.337718    1.674727   -1.261496
     67          7           0       -6.102940    0.386980   -1.326810
     68          6           0       -4.722985    0.293572   -1.218486
     69          6           0       -5.101315    3.905681   -1.012033
     70          7           0       -5.204356    2.437251   -1.117266
 ---------------------------------------------------------------------

 SCF Done:  E(RwB97XD) =  -2048.74855412     A.U. after   15 cycles

 The electronic state is 1-A.
 Alpha  occ. eigenvalues --  -19.25200 -19.21346 -19.20393 -14.52721 -14.51887
 Alpha  occ. eigenvalues --  -14.49221 -14.48710 -14.48165 -14.47197 -14.46520
 Alpha  occ. eigenvalues --  -14.46163 -14.45656 -14.45019 -14.45006 -14.42945
 Alpha  occ. eigenvalues --  -14.41839 -14.40898 -14.40829 -14.40704 -14.40375
 Alpha  occ. eigenvalues --  -10.44843 -10.40936 -10.40661 -10.39475 -10.38223
 Alpha  occ. eigenvalues --  -10.37986 -10.37655 -10.37428 -10.36470 -10.35582
 Alpha  occ. eigenvalues --  -10.34494 -10.34181 -10.34113 -10.33616 -10.33299
 Alpha  occ. eigenvalues --  -10.33105 -10.32987 -10.32874 -10.30927 -10.30741
 Alpha  occ. eigenvalues --  -10.30166 -10.28281 -10.27932  -1.18838  -1.15506
 Alpha  occ. eigenvalues --   -1.12951  -1.12366  -1.10833  -1.10443  -1.10006
 Alpha  occ. eigenvalues --   -1.08766  -1.08273  -1.05546  -1.05070  -1.01839
 Alpha  occ. eigenvalues --   -1.01303  -1.00571  -0.99345  -0.98328  -0.97534
 Alpha  occ. eigenvalues --   -0.96546  -0.96476  -0.92751  -0.90617  -0.88055
 Alpha  occ. eigenvalues --   -0.86222  -0.83981  -0.83509  -0.83051  -0.82405
 Alpha  occ. eigenvalues --   -0.81832  -0.78376  -0.77554  -0.75400  -0.74438
 Alpha  occ. eigenvalues --   -0.73304  -0.72810  -0.72768  -0.70999  -0.70829
 Alpha  occ. eigenvalues --   -0.67435  -0.67059  -0.66207  -0.66010  -0.64776
 Alpha  occ. eigenvalues --   -0.64160  -0.63450  -0.62672  -0.62414  -0.61462
 Alpha  occ. eigenvalues --   -0.61030  -0.60702  -0.60250  -0.59787  -0.59216
 Alpha  occ. eigenvalues --   -0.59048  -0.57954  -0.56709  -0.56410  -0.55739
 Alpha  occ. eigenvalues --   -0.55635  -0.55586  -0.55522  -0.54865  -0.54086
 Alpha  occ. eigenvalues --   -0.53906  -0.53504  -0.53312  -0.53170  -0.52759
 Alpha  occ. eigenvalues --   -0.52525  -0.51922  -0.51330  -0.50400  -0.50332
 Alpha  occ. eigenvalues --   -0.49967  -0.49830  -0.49632  -0.48965  -0.48758
 Alpha  occ. eigenvalues --   -0.48566  -0.47985  -0.47819  -0.47577  -0.47012
 Alpha  occ. eigenvalues --   -0.46638  -0.45683  -0.45316  -0.44381  -0.43473
 Alpha  occ. eigenvalues --   -0.41210  -0.41089  -0.38927  -0.38214  -0.38082
 Alpha  occ. eigenvalues --   -0.37293  -0.37100  -0.36631  -0.35451  -0.35100
 Alpha  occ. eigenvalues --   -0.35054  -0.33866  -0.33296  -0.33178  -0.32717
 Alpha  occ. eigenvalues --   -0.32377  -0.32347  -0.31713  -0.31446  -0.30659
 Alpha  occ. eigenvalues --   -0.30518  -0.30220  -0.26067  -0.24982
 Alpha virt. eigenvalues --    0.03189   0.03895   0.06405   0.08051   0.09088
 Alpha virt. eigenvalues --    0.09480   0.09928   0.10284   0.11035   0.11401
 Alpha virt. eigenvalues --    0.13303   0.14398   0.14681   0.14829   0.15146

 Mulliken charges:
               1
     1  N   -0.313424
     2  C    0.184824
     3  C    0.057947
     4  N   -0.261488
     5  C    0.142920
     6  H    0.027179
     7  N   -0.290027
     8  C    0.123640
     9  H    0.015531
    10  N   -0.274500
    11  C    0.262373
    12  C    0.089835
    13  N   -0.070385
    14  H    0.110315
    15  H    0.081165
    16  H    0.020154
    17  H    0.032380
    18  H    0.031967
    19  N   -0.309825
    20  C    0.246301
    21  C    0.180853
    22  N   -0.111965
    23  H    0.114440
    24  H    0.115023
    25  N   -0.308822
    26  C    0.233049
    27  N   -0.128506
    28  H    0.112505
    29  C    0.175369
    30  O   -0.321409
    31  C   -0.002236
    32  N   -0.229666
    33  C    0.125572
    34  H    0.021280
    35  H    0.027456
    36  H    0.028912
    37  H    0.024292
    38  H    0.057998
    39  H    0.058553
    40  H    0.075652
    41  H    0.028800
    42  C   -0.116104
    43  O   -0.258787
    44  C    0.174257
    45  H    0.135576
    46  N   -0.128087
    47  O   -0.345176
    48  C    0.354111
    49  H    0.042238
    50  C    0.161875
    51  C    0.038045
    52  N   -0.281357
    53  H    0.035055
    54  H    0.037212
    55  H    0.031530
    56  H    0.118583
    57  H    0.120508
    58  N   -0.061166
    59  C    0.067764
    60  C    0.251893
    61  N   -0.280495
    62  H    0.022422
    63  C    0.191301
    64  N   -0.310064
    65  H    0.040104
    66  C    0.141210
    67  N   -0.259363
    68  C    0.025604
    69  C    0.181060
    70  N   -0.313784
 Sum of Mulliken charges =  -0.00000

 Dipole moment (field-independent basis, Debye):
    X=             -8.9433    Y=              5.7133    Z=             -1.5363  Tot=             10.7231
 Quadrupole moment (field-independent basis, Debye-Ang):
   XX=           -170.0678   YY=           -212.1198   ZZ=           -252.4708
   XY=              7.5686   XZ=            -16.2263   YZ=              7.5298

 Normal termination of Gaussian 16 at Fri Jan 26 01:15:33 2018.
