 Gaussian 16, Revision A.03,
 Gaussian 16:  EM64L-G16RevA.03 25-Dec-2016

 ---------------------------------------
 #p wb97xd/cc-pvdz sp scf=(maxcycles=20)
 ---------------------------------------

 ------------------
 Base pair stacking
 ------------------
 Symbolic Z-matrix:
 Charge =  0 Multiplicity = 1

                         Standard orientation:
 ---------------------------------------------------------------------
 Center     Atomic      Atomic             Coordinates (Angstroms)
 Number     Number       Type             X           Y           Z
 ---------------------------------------------------------------------
      1          7           0        5.856947   -1.759576   -1.019978
      2          6           0        7.259212   -1.305067   -0.948828
      3          6           0        3.664086   -1.808860   -1.181967
      4          7           0        4.073217   -3.127906   -1.049887
      5          6           0        5.377957   -3.045426   -0.957576
      6          1           0        6.046483   -3.898980   -0.841582
      7          7           0        2.334565    0.123360   -1.430656
      8          6           0        3.475376    0.819819   -1.397824
      9          1           0        3.363888    1.899409   -1.489037
     10          7           0        4.727343    0.384961   -1.269832
     11          6           0        4.752428   -0.954015   -1.165250
     12          6           0        2.393402   -1.222012   -1.323036
     13          7           0        1.255705   -1.918973   -1.355588
     14          1           0        1.251815   -2.916666   -1.279374
     15          1           0        0.368956   -1.467864   -1.457219
     16          1           0        7.781197   -1.711343   -1.698924
     17          1           0        7.291616   -0.308770   -1.022776
     18          1           0        7.659003   -1.586021   -0.076338
     19          7           0        3.204563    3.036925    1.489812
     20          6           0        1.913383    2.578471    1.386177
     21          6           0        3.635930    4.431330    1.265606
     22          7           0       -1.447309    3.173812    0.743468
     23          1           0       -2.298222    2.649685    0.721466
     24          1           0       -1.509611    4.149241    0.530464
     25          7           0        0.830539    3.318841    1.064709
     26          6           0       -0.274892    2.595485    1.044967
     27          7           0       -0.318687    1.249896    1.318796
     28          1           0       -1.208895    0.777692    1.279900
     29          6           0        0.782957    0.468020    1.651825
     30          8           0        0.634973   -0.738831    1.880643
     31          6           0        1.977837    1.231231    1.677045
     32          7           0        3.283211    0.851537    1.957643
     33          6           0        3.973823    1.952498    1.834633
     34          1           0        5.051209    2.029749    1.984770
     35          1           0        4.299490    4.460731    0.518866
     36          1           0        2.842213    4.989214    1.026807
     37          1           0        4.055739    4.790131    2.098574
     38          1           0       -5.825607   -1.109202    0.290802
     39          1           0       -6.008804   -1.020622    2.041009
     40          1           0       -5.000011    0.156883    1.200078
     41          1           0       -3.345456   -5.006597    1.634577
     42          6           0       -3.222363   -3.924320    1.592689
     43          8           0       -0.864622   -3.998068    1.843208
     44          6           0       -1.910048   -3.364154    1.701693
     45          1           0       -0.956148   -1.553530    1.709907
     46          7           0       -1.866231   -1.986081    1.636545
     47          8           0       -2.789499    0.078946    1.435391
     48          6           0       -2.928305   -1.130691    1.482081
     49          1           0       -5.296357   -3.491626    1.353702
     50          6           0       -4.277811   -3.115805    1.441293
     51          6           0       -5.325416   -0.872635    1.218118
     52          7           0       -4.160624   -1.746357    1.384254
     53          1           0       -4.351249    4.243174   -2.435329
     54          1           0       -3.156098    4.104571   -1.333280
     55          1           0       -4.715799    4.081931   -0.852753
     56          1           0       -2.267285   -2.853440   -1.834761
     57          1           0       -3.876325   -2.387604   -2.157384
     58          7           0       -2.942808   -2.120471   -1.915697
     59          6           0       -2.614429   -0.843243   -1.710647
     60          6           0       -3.036270    1.494311   -1.570511
     61          7           0       -1.774788    1.823706   -1.247111
     62          1           0        0.032832    0.913389   -0.923921
     63          6           0       -1.010307    0.735495   -1.181753
     64          7           0       -1.337327   -0.544581   -1.386776
     65          1           0       -6.164171    1.960272   -2.242283
     66          6           0       -5.173887    1.543229   -2.056944
     67          7           0       -4.878989    0.267720   -2.118531
     68          6           0       -3.526625    0.222824   -1.812210
     69          6           0       -4.080164    3.810409   -1.575546
     70          7           0       -4.105965    2.342965   -1.730331
 ---------------------------------------------------------------------

 SCF Done:  E(RwB97XD) =  -2048.72053218     A.U. after   15 cycles

 The electronic state is 1-A.
 Alpha  occ. eigenvalues --  -19.25732 -19.21842 -19.20478 -14.52577 -14.52313
 Alpha  occ. eigenvalues --  -14.48597 -14.48439 -14.48346 -14.47705 -14.46654
 Alpha  occ. eigenvalues --  -14.45821 -14.45501 -14.44135 -14.43644 -14.42262
 Alpha  occ. eigenvalues --  -14.41776 -14.41123 -14.40626 -14.40576 -14.40031
 Alpha  occ. eigenvalues --  -10.45351 -10.40720 -10.39974 -10.39829 -10.38015
 Alpha  occ. eigenvalues --  -10.38004 -10.37762 -10.37076 -10.35434 -10.35269
 Alpha  occ. eigenvalues --  -10.34855 -10.34428 -10.34095 -10.33804 -10.33073
 Alpha  occ. eigenvalues --  -10.33049 -10.32834 -10.32515 -10.31093 -10.30816
 Alpha  occ. eigenvalues --  -10.30670 -10.28258 -10.27851  -1.19326  -1.15237
 Alpha  occ. eigenvalues --   -1.13060  -1.12871  -1.11026  -1.10416  -1.09276
 Alpha  occ. eigenvalues --   -1.09188  -1.08311  -1.04857  -1.04769  -1.02329
 Alpha  occ. eigenvalues --   -1.01093  -1.00269  -0.99453  -0.98372  -0.96835
 Alpha  occ. eigenvalues --   -0.96605  -0.96395  -0.92470  -0.90975  -0.87668
 Alpha  occ. eigenvalues --   -0.86157  -0.83890  -0.83647  -0.83395  -0.82344
 Alpha  occ. eigenvalues --   -0.82053  -0.78784  -0.77038  -0.74961  -0.74377
 Alpha  occ. eigenvalues --   -0.73414  -0.73195  -0.72706  -0.70828  -0.70497
 Alpha  occ. eigenvalues --   -0.67148  -0.66908  -0.66400  -0.66116  -0.64415
 Alpha  occ. eigenvalues --   -0.64290  -0.63608  -0.62678  -0.62533  -0.61471
 Alpha  occ. eigenvalues --   -0.60733  -0.60327  -0.60214  -0.59490  -0.59422
 Alpha  occ. eigenvalues --   -0.59368  -0.58152  -0.56786  -0.56308  -0.56040
 Alpha  occ. eigenvalues --   -0.55898  -0.55649  -0.55295  -0.54870  -0.54305
 Alpha  occ. eigenvalues --   -0.54061  -0.53492  -0.53254  -0.53064  -0.52781
 Alpha  occ. eigenvalues --   -0.52597  -0.52183  -0.51514  -0.50491  -0.50011
 Alpha  occ. eigenvalues --   -0.49965  -0.49627  -0.49418  -0.49090  -0.48708
 Alpha  occ. eigenvalues --   -0.48638  -0.48119  -0.47918  -0.47576  -0.47205
 Alpha  occ. eigenvalues --   -0.46622  -0.45774  -0.44822  -0.44483  -0.43805
 Alpha  occ. eigenvalues --   -0.41061  -0.40893  -0.39345  -0.37976  -0.37804
 Alpha  occ. eigenvalues --   -0.37073  -0.36908  -0.36838  -0.35740  -0.34945
 Alpha  occ. eigenvalues --   -0.34376  -0.33391  -0.33318  -0.33003  -0.32485
 Alpha  occ. eigenvalues --   -0.32238  -0.31867  -0.31720  -0.31641  -0.30623
 Alpha  occ. eigenvalues --   -0.30207  -0.29782  -0.25743  -0.24688
 Alpha virt. eigenvalues --    0.03064   0.04178   0.07097   0.08200   0.08428
 Alpha virt. eigenvalues --    0.09444   0.09856   0.10639   0.11368   0.11678
 Alpha virt. eigenvalues --    0.12153   0.13959   0.14593   0.14696   0.15079

 Mulliken charges:
               1
     1  N   -0.313395
     2  C    0.181867
     3  C    0.042280
     4  N   -0.260810
     5  C    0.135888
     6  H    0.025878
     7  N   -0.293186
     8  C    0.144387
     9  H    0.007833
    10  N   -0.288855
    11  C    0.256566
    12  C    0.118180
    13  N   -0.060609
    14  H    0.108572
    15  H    0.082984
    16  H    0.023706
    17  H    0.032235
    18  H    0.027501
    19  N   -0.308468
    20  C    0.239399
    21  C    0.180878
    22  N   -0.067876
    23  H    0.110390
    24  H    0.111862
    25  N   -0.302370
    26  C    0.205766
    27  N   -0.142702
    28  H    0.126294
    29  C    0.172790
    30  O   -0.321576
    31  C    0.003271
    32  N   -0.223275
    33  C    0.129109
    34  H    0.022916
    35  H    0.028549
    36  H    0.027709
    37  H    0.024195
    38  H    0.060186
    39  H    0.058565
    40  H    0.073374
    41  H    0.030791
    42  C   -0.113120
    43  O   -0.262102
    44  C    0.172239
    45  H    0.132790
    46  N   -0.125769
    47  O   -0.343855
    48  C    0.343168
    49  H    0.046379
    50  C    0.163948
    51  C    0.041705
    52  N   -0.287205
    53  H    0.038762
    54  H    0.028267
    55  H    0.030865
    56  H    0.120878
    57  H    0.115954
    58  N   -0.064063
    59  C    0.080929
    60  C    0.241993
    61  N   -0.285359
    62  H    0.042098
    63  C    0.164314
    64  N   -0.299620
    65  H    0.036759
    66  C    0.136045
    67  N   -0.266367
    68  C    0.039674
    69  C    0.175775
    70  N   -0.315879
 Sum of Mulliken charges =  -0.00000

 Dipole moment (field-independent basis, Debye):
    X=             -8.8200    Y=              5.3668    Z=             -2.5777  Tot=             10.6414
 Quadrupole moment (field-independent basis, Debye-Ang):
   XX=           -159.7270   YY=           -213.4981   ZZ=           -255.0299
   XY=              4.1395   XZ=             -1.4059   YZ=              8.9184

 Normal termination of Gaussian 16 at Thu Jan 25 22:24:56 2018.
