 Gaussian 16, Revision A.03,
 Gaussian 16:  EM64L-G16RevA.03 25-Dec-2016

 ---------------------------------------
 #p wb97xd/cc-pvdz sp scf=(maxcycles=20)
 ---------------------------------------

 ------------------
 Base pair stacking
 ------------------
 Symbolic Z-matrix:
 Charge =  0 Multiplicity = 1

                         Standard orientation:
 ---------------------------------------------------------------------
 Center     Atomic      Atomic             Coordinates (Angstroms)
 Number     Number       Type             X           Y           Z
 ---------------------------------------------------------------------
      1          7           0        4.591008   -2.192099   -1.761461
      2          6           0        5.992486   -1.827815   -2.046383
      3          6           0        2.407845   -2.125398   -1.503278
      4          7           0        2.798193   -3.415637   -1.175209
      5          6           0        4.097850   -3.404185   -1.343886
      6          1           0        4.752327   -4.260110   -1.176552
      7          7           0        1.109277   -0.197373   -1.902537
      8          6           0        2.253612    0.413270   -2.226874
      9          1           0        2.156442    1.457649   -2.520263
     10          7           0        3.494120   -0.070235   -2.243121
     11          6           0        3.501986   -1.359658   -1.866632
     12          6           0        1.150644   -1.494713   -1.527995
     13          7           0        0.009400   -2.105996   -1.203863
     14          1           0       -0.007212   -3.065596   -0.920825
     15          1           0       -0.867405   -1.625881   -1.232887
     16          1           0        6.347685   -2.410360   -2.777583
     17          1           0        6.037459   -0.871047   -2.332202
     18          1           0        6.545925   -1.954376   -1.223173
     19          7           0        4.496529    3.062035    0.853196
     20          6           0        3.190095    2.664122    1.004655
     21          6           0        4.941644    4.441936    0.573125
     22          7           0       -0.197870    3.425319    1.068250
     23          1           0       -1.060387    2.940066    1.209111
     24          1           0       -0.253959    4.408272    0.891140
     25          7           0        2.102278    3.460471    0.923737
     26          6           0        0.981477    2.787428    1.114585
     27          7           0        0.927899    1.437747    1.365602
     28          1           0        0.026085    1.006569    1.498901
     29          6           0        2.034401    0.598789    1.453225
     30          8           0        1.876619   -0.606446    1.683980
     31          6           0        3.245762    1.307543    1.250393
     32          7           0        4.560690    0.862731    1.253133
     33          6           0        5.265437    1.935262    1.013919
     34          1           0        6.353431    1.960579    0.943968
     35          1           0        5.441647    4.463547   -0.291936
     36          1           0        4.144383    5.040922    0.510998
     37          1           0        5.537830    4.757750    1.310435
     38          1           0       -4.782044   -0.645687    1.430126
     39          1           0       -4.604053   -0.599557    3.182510
     40          1           0       -3.729049    0.556060    2.177386
     41          1           0       -2.275934   -4.685711    2.167773
     42          6           0       -2.110921   -3.609162    2.122670
     43          8           0        0.242399   -3.793979    1.888508
     44          6           0       -0.777741   -3.110770    1.974135
     45          1           0        0.245776   -1.344948    1.823696
     46          7           0       -0.680483   -1.734664    1.928041
     47          8           0       -1.523023    0.373995    1.958112
     48          6           0       -1.708669   -0.829187    2.008635
     49          1           0       -4.166773   -3.078749    2.317518
     50          6           0       -3.134316   -2.750866    2.204020
     51          6           0       -4.094198   -0.458209    2.241165
     52          7           0       -2.964058   -1.386855    2.150822
     53          1           0       -5.527957    4.077112   -2.500963
     54          1           0       -4.146111    4.082277   -1.633461
     55          1           0       -5.583050    4.261286   -0.880318
     56          1           0       -3.564098   -2.878685   -0.820023
     57          1           0       -5.191653   -2.379946   -0.931484
     58          7           0       -4.221975   -2.133113   -0.927123
     59          6           0       -3.824881   -0.865730   -1.058357
     60          6           0       -4.146763    1.475410   -1.336163
     61          7           0       -2.837902    1.777437   -1.326709
     62          1           0       -1.027784    0.831033   -1.158073
     63          6           0       -2.105635    0.675561   -1.176482
     64          7           0       -2.501457   -0.594709   -1.044879
     65          1           0       -7.331454    2.006335   -1.503515
     66          6           0       -6.335943    1.569346   -1.420293
     67          7           0       -6.093957    0.290505   -1.266321
     68          6           0       -4.709635    0.217176   -1.211535
     69          6           0       -5.107381    3.808286   -1.634454
     70          7           0       -5.203260    2.344725   -1.470738
 ---------------------------------------------------------------------

 SCF Done:  E(RwB97XD) =  -2048.74698819     A.U. after   15 cycles

 The electronic state is 1-A.
 Alpha  occ. eigenvalues --  -19.25406 -19.21614 -19.20553 -14.52528 -14.52076
 Alpha  occ. eigenvalues --  -14.48981 -14.48901 -14.47922 -14.47367 -14.46802
 Alpha  occ. eigenvalues --  -14.46563 -14.45499 -14.44854 -14.44695 -14.42547
 Alpha  occ. eigenvalues --  -14.42027 -14.41024 -14.40564 -14.40489 -14.40131
 Alpha  occ. eigenvalues --  -10.45055 -10.41206 -10.40434 -10.39725 -10.38193
 Alpha  occ. eigenvalues --  -10.38081 -10.37715 -10.37432 -10.36143 -10.35281
 Alpha  occ. eigenvalues --  -10.34714 -10.34411 -10.33911 -10.33462 -10.33318
 Alpha  occ. eigenvalues --  -10.32954 -10.32734 -10.32690 -10.31065 -10.30991
 Alpha  occ. eigenvalues --  -10.30042 -10.28159 -10.27990  -1.18987  -1.15316
 Alpha  occ. eigenvalues --   -1.13166  -1.12619  -1.10644  -1.10570  -1.09785
 Alpha  occ. eigenvalues --   -1.08951  -1.08514  -1.05297  -1.04784  -1.02035
 Alpha  occ. eigenvalues --   -1.01120  -1.00265  -0.99666  -0.98543  -0.97291
 Alpha  occ. eigenvalues --   -0.96676  -0.96269  -0.92478  -0.90864  -0.87832
 Alpha  occ. eigenvalues --   -0.86016  -0.84186  -0.83266  -0.83221  -0.82587
 Alpha  occ. eigenvalues --   -0.81622  -0.78595  -0.77344  -0.75146  -0.74649
 Alpha  occ. eigenvalues --   -0.73582  -0.72975  -0.72524  -0.70772  -0.70570
 Alpha  occ. eigenvalues --   -0.67352  -0.67185  -0.66216  -0.65929  -0.64566
 Alpha  occ. eigenvalues --   -0.64351  -0.63637  -0.62591  -0.62381  -0.61735
 Alpha  occ. eigenvalues --   -0.60846  -0.60469  -0.60011  -0.59526  -0.59295
 Alpha  occ. eigenvalues --   -0.59201  -0.58280  -0.56725  -0.56232  -0.55732
 Alpha  occ. eigenvalues --   -0.55477  -0.55460  -0.55254  -0.54665  -0.54152
 Alpha  occ. eigenvalues --   -0.53854  -0.53552  -0.53485  -0.53008  -0.52969
 Alpha  occ. eigenvalues --   -0.52734  -0.52089  -0.51122  -0.50249  -0.50175
 Alpha  occ. eigenvalues --   -0.50027  -0.49655  -0.49486  -0.49131  -0.48748
 Alpha  occ. eigenvalues --   -0.48494  -0.48200  -0.47956  -0.47773  -0.47187
 Alpha  occ. eigenvalues --   -0.46414  -0.45643  -0.45343  -0.44425  -0.43674
 Alpha  occ. eigenvalues --   -0.40917  -0.40825  -0.39085  -0.38028  -0.37850
 Alpha  occ. eigenvalues --   -0.37320  -0.37280  -0.36542  -0.35460  -0.35100
 Alpha  occ. eigenvalues --   -0.34745  -0.33971  -0.33071  -0.32992  -0.32834
 Alpha  occ. eigenvalues --   -0.32563  -0.32545  -0.31886  -0.31735  -0.30491
 Alpha  occ. eigenvalues --   -0.30347  -0.30025  -0.25773  -0.25227
 Alpha virt. eigenvalues --    0.02949   0.04098   0.06605   0.08355   0.08904
 Alpha virt. eigenvalues --    0.09303   0.09788   0.10417   0.11265   0.11347
 Alpha virt. eigenvalues --    0.13450   0.14518   0.14627   0.14759   0.15032

 Mulliken charges:
               1
     1  N   -0.313061
     2  C    0.183971
     3  C    0.055835
     4  N   -0.256412
     5  C    0.142446
     6  H    0.026357
     7  N   -0.297286
     8  C    0.131314
     9  H    0.010709
    10  N   -0.281749
    11  C    0.261593
    12  C    0.095105
    13  N   -0.070485
    14  H    0.113145
    15  H    0.081518
    16  H    0.020395
    17  H    0.032110
    18  H    0.030833
    19  N   -0.311216
    20  C    0.251083
    21  C    0.180795
    22  N   -0.120065
    23  H    0.117243
    24  H    0.116780
    25  N   -0.312260
    26  C    0.247075
    27  N   -0.144617
    28  H    0.117517
    29  C    0.190290
    30  O   -0.321431
    31  C   -0.011024
    32  N   -0.230087
    33  C    0.127240
    34  H    0.022678
    35  H    0.027850
    36  H    0.029407
    37  H    0.024846
    38  H    0.056173
    39  H    0.059430
    40  H    0.075120
    41  H    0.028935
    42  C   -0.117048
    43  O   -0.256210
    44  C    0.165613
    45  H    0.135165
    46  N   -0.124877
    47  O   -0.349102
    48  C    0.353166
    49  H    0.041681
    50  C    0.159478
    51  C    0.039016
    52  N   -0.280108
    53  H    0.034550
    54  H    0.040189
    55  H    0.029982
    56  H    0.117545
    57  H    0.119002
    58  N   -0.063082
    59  C    0.081129
    60  C    0.252016
    61  N   -0.275886
    62  H    0.033448
    63  C    0.180051
    64  N   -0.314716
    65  H    0.039443
    66  C    0.141595
    67  N   -0.262613
    68  C    0.025729
    69  C    0.180180
    70  N   -0.313439
 Sum of Mulliken charges =  -0.00000

 Dipole moment (field-independent basis, Debye):
    X=             -8.8746    Y=              6.0299    Z=             -0.4798  Tot=             10.7400
 Quadrupole moment (field-independent basis, Debye-Ang):
   XX=           -170.6462   YY=           -210.8745   ZZ=           -250.1627
   XY=              6.6745   XZ=            -15.2961   YZ=              3.4883

 Normal termination of Gaussian 16 at Fri Jan 26 17:28:23 2018.
