 Gaussian 16, Revision A.03,
 Gaussian 16:  EM64L-G16RevA.03 25-Dec-2016

 ---------------------------------------
 #p wb97xd/cc-pvdz sp scf=(maxcycles=20)
 ---------------------------------------

 ------------------
 Base pair stacking
 ------------------
 Symbolic Z-matrix:
 Charge =  0 Multiplicity = 1

                         Standard orientation:
 ---------------------------------------------------------------------
 Center     Atomic      Atomic             Coordinates (Angstroms)
 Number     Number       Type             X           Y           Z
 ---------------------------------------------------------------------
      1          7           0       -6.687444   -1.619464    0.420457
      2          6           0       -8.077134   -1.153149    0.249212
      3          6           0       -4.514466   -1.688450    0.753225
      4          7           0       -4.919466   -3.001320    0.560654
      5          6           0       -6.212393   -2.907214    0.367879
      6          1           0       -6.874577   -3.753117    0.181096
      7          7           0       -3.197637    0.228127    1.147742
      8          6           0       -4.328319    0.933573    1.040521
      9          1           0       -4.218190    2.010116    1.163741
     10          7           0       -5.568780    0.510831    0.805050
     11          6           0       -5.593210   -0.825394    0.669643
     12          6           0       -3.255510   -1.114180    1.006511
     13          7           0       -2.127914   -1.820102    1.113209
     14          1           0       -2.123739   -2.815946    1.015797
     15          1           0       -1.249363   -1.377846    1.294047
     16          1           0       -8.658884   -1.571417    0.946915
     17          1           0       -8.109558   -0.158440    0.342097
     18          1           0       -8.408564   -1.412491   -0.657923
     19          7           0       -2.247672    2.990076   -1.764959
     20          6           0       -0.975964    2.519752   -1.542230
     21          6           0       -2.668568    4.400818   -1.649366
     22          7           0        2.339793    3.102041   -0.688742
     23          1           0        3.177165    2.567884   -0.575936
     24          1           0        2.404349    4.086847   -0.525297
     25          7           0        0.094155    3.261387   -1.183260
     26          6           0        1.181873    2.524575   -1.043220
     27          7           0        1.220743    1.165328   -1.239267
     28          1           0        2.097034    0.683385   -1.109604
     29          6           0        0.131953    0.381874   -1.608855
     30          8           0        0.274009   -0.837845   -1.760018
     31          6           0       -1.043834    1.159445   -1.763078
     32          7           0       -2.332226    0.783339   -2.117319
     33          6           0       -3.009691    1.899182   -2.105460
     34          1           0       -4.071816    1.983281   -2.338042
     35          1           0       -3.383723    4.481264   -0.955905
     36          1           0       -1.884121    4.959786   -1.383918
     37          1           0       -3.020430    4.718559   -2.529170
     38          1           0        6.594904   -1.211039    0.316245
     39          1           0        6.905728   -1.222812   -1.418084
     40          1           0        5.860474    0.014015   -0.718763
     41          1           0        4.147572   -5.141549   -0.990740
     42          6           0        4.041571   -4.056977   -1.017095
     43          8           0        1.707156   -4.110974   -1.435109
     44          6           0        2.751023   -3.485110   -1.252270
     45          1           0        1.833469   -1.664351   -1.429085
     46          7           0        2.727811   -2.105061   -1.265800
     47          8           0        3.671704   -0.045408   -1.110625
     48          6           0        3.791393   -1.257626   -1.080946
     49          1           0        6.100426   -3.641238   -0.650930
     50          6           0        5.097921   -3.256408   -0.833209
     51          6           0        6.167472   -1.019449   -0.656726
     52          7           0        5.001955   -1.884383   -0.859732
     53          1           0        3.411741    4.275890    2.764524
     54          1           0        2.306322    4.169657    1.569172
     55          1           0        3.898872    4.145688    1.212371
     56          1           0        1.340987   -2.790671    1.847363
     57          1           0        2.922254   -2.343755    2.305577
     58          7           0        2.012225   -2.064613    1.997131
     59          6           0        1.708319   -0.780910    1.794804
     60          6           0        2.153253    1.555895    1.739274
     61          7           0        0.923073    1.901447    1.324957
     62          1           0       -0.858664    1.011662    0.840884
     63          6           0        0.159890    0.820582    1.175992
     64          7           0        0.462425   -0.465965    1.378120
     65          1           0        5.221146    1.984229    2.664869
     66          6           0        4.246164    1.578590    2.393196
     67          7           0        3.940046    0.304279    2.403583
     68          6           0        2.615771    0.275960    1.990979
     69          6           0        3.206744    3.863552    1.876859
     70          7           0        3.211872    2.393001    2.001157
 ---------------------------------------------------------------------

 SCF Done:  E(RwB97XD) =  -2048.71872969     A.U. after   15 cycles

 The electronic state is 1-A.
 Alpha  occ. eigenvalues --  -19.25982 -19.22169 -19.20686 -14.52569 -14.51925
 Alpha  occ. eigenvalues --  -14.48803 -14.48799 -14.47999 -14.47515 -14.46785
 Alpha  occ. eigenvalues --  -14.46676 -14.44857 -14.43378 -14.42903 -14.42280
 Alpha  occ. eigenvalues --  -14.41976 -14.41485 -14.40931 -14.40791 -14.40166
 Alpha  occ. eigenvalues --  -10.45610 -10.41338 -10.40277 -10.39148 -10.38262
 Alpha  occ. eigenvalues --  -10.37981 -10.37474 -10.36311 -10.35452 -10.35246
 Alpha  occ. eigenvalues --  -10.34705 -10.34406 -10.34143 -10.33834 -10.33400
 Alpha  occ. eigenvalues --  -10.33240 -10.33125 -10.31944 -10.31286 -10.30958
 Alpha  occ. eigenvalues --  -10.30946 -10.28580 -10.28170  -1.19557  -1.14678
 Alpha  occ. eigenvalues --   -1.13325  -1.13180  -1.11386  -1.10634  -1.09456
 Alpha  occ. eigenvalues --   -1.08835  -1.08420  -1.05002  -1.04009  -1.02636
 Alpha  occ. eigenvalues --   -1.00756  -1.00479  -0.99825  -0.98557  -0.97016
 Alpha  occ. eigenvalues --   -0.96598  -0.96023  -0.92658  -0.91208  -0.87085
 Alpha  occ. eigenvalues --   -0.85617  -0.84186  -0.83969  -0.83714  -0.82582
 Alpha  occ. eigenvalues --   -0.82344  -0.79027  -0.76409  -0.74756  -0.74064
 Alpha  occ. eigenvalues --   -0.73882  -0.73490  -0.72946  -0.71095  -0.69837
 Alpha  occ. eigenvalues --   -0.67587  -0.66691  -0.66354  -0.66189  -0.64571
 Alpha  occ. eigenvalues --   -0.63878  -0.63729  -0.62819  -0.62732  -0.62242
 Alpha  occ. eigenvalues --   -0.60325  -0.60017  -0.59877  -0.59640  -0.59445
 Alpha  occ. eigenvalues --   -0.59050  -0.58703  -0.56978  -0.56566  -0.56393
 Alpha  occ. eigenvalues --   -0.56061  -0.55488  -0.55471  -0.54700  -0.54447
 Alpha  occ. eigenvalues --   -0.53756  -0.53531  -0.53211  -0.52997  -0.52607
 Alpha  occ. eigenvalues --   -0.52467  -0.52123  -0.51778  -0.50751  -0.50228
 Alpha  occ. eigenvalues --   -0.50226  -0.49537  -0.49375  -0.48915  -0.48781
 Alpha  occ. eigenvalues --   -0.48659  -0.48418  -0.48245  -0.48114  -0.47470
 Alpha  occ. eigenvalues --   -0.46983  -0.45763  -0.45097  -0.44143  -0.43088
 Alpha  occ. eigenvalues --   -0.41200  -0.39855  -0.39511  -0.37820  -0.37271
 Alpha  occ. eigenvalues --   -0.37214  -0.36870  -0.36809  -0.35757  -0.34389
 Alpha  occ. eigenvalues --   -0.33895  -0.33588  -0.33476  -0.33320  -0.33128
 Alpha  occ. eigenvalues --   -0.32711  -0.32403  -0.32111  -0.31859  -0.30880
 Alpha  occ. eigenvalues --   -0.30388  -0.29070  -0.25841  -0.25383
 Alpha virt. eigenvalues --    0.02894   0.04417   0.07540   0.07873   0.08409
 Alpha virt. eigenvalues --    0.09288   0.09509   0.10865   0.11405   0.12133
 Alpha virt. eigenvalues --    0.12671   0.14009   0.14112   0.14712   0.14898

 Mulliken charges:
               1
     1  N   -0.311653
     2  C    0.181160
     3  C    0.033709
     4  N   -0.259835
     5  C    0.134290
     6  H    0.026667
     7  N   -0.292057
     8  C    0.136690
     9  H    0.007013
    10  N   -0.290499
    11  C    0.245965
    12  C    0.126584
    13  N   -0.057614
    14  H    0.108687
    15  H    0.088413
    16  H    0.025114
    17  H    0.034251
    18  H    0.026605
    19  N   -0.311694
    20  C    0.233251
    21  C    0.181553
    22  N   -0.099520
    23  H    0.116788
    24  H    0.111904
    25  N   -0.282082
    26  C    0.197001
    27  N   -0.110504
    28  H    0.114672
    29  C    0.138791
    30  O   -0.315190
    31  C    0.012460
    32  N   -0.220717
    33  C    0.126841
    34  H    0.029988
    35  H    0.028455
    36  H    0.027566
    37  H    0.024922
    38  H    0.062841
    39  H    0.058207
    40  H    0.074161
    41  H    0.031984
    42  C   -0.113279
    43  O   -0.265327
    44  C    0.170193
    45  H    0.134859
    46  N   -0.133691
    47  O   -0.346987
    48  C    0.358344
    49  H    0.048496
    50  C    0.169412
    51  C    0.044031
    52  N   -0.294939
    53  H    0.035609
    54  H    0.045825
    55  H    0.011372
    56  H    0.125417
    57  H    0.114138
    58  N   -0.068174
    59  C    0.093321
    60  C    0.211045
    61  N   -0.255851
    62  H    0.062936
    63  C    0.156026
    64  N   -0.298274
    65  H    0.031750
    66  C    0.130645
    67  N   -0.266413
    68  C    0.043746
    69  C    0.169126
    70  N   -0.308525
 Sum of Mulliken charges =  -0.00000

 Dipole moment (field-independent basis, Debye):
    X=              8.4988    Y=              5.0542    Z=              2.7440  Tot=             10.2618
 Quadrupole moment (field-independent basis, Debye-Ang):
   XX=           -153.5669   YY=           -214.8648   ZZ=           -252.9732
   XY=             -1.5949   XZ=              9.0026   YZ=             -9.7295

 Normal termination of Gaussian 16 at Fri Jan 26 16:09:48 2018.
