 Gaussian 16, Revision A.03,
 Gaussian 16:  EM64L-G16RevA.03 25-Dec-2016

 ---------------------------------------
 #p wb97xd/cc-pvdz sp scf=(maxcycles=20)
 ---------------------------------------

 ------------------
 Base pair stacking
 ------------------
 Symbolic Z-matrix:
 Charge =  0 Multiplicity = 1

                         Standard orientation:
 ---------------------------------------------------------------------
 Center     Atomic      Atomic             Coordinates (Angstroms)
 Number     Number       Type             X           Y           Z
 ---------------------------------------------------------------------
      1          7           0        4.253095   -1.965485   -1.900200
      2          6           0        5.638388   -1.551709   -2.196448
      3          6           0        2.075830   -1.966856   -1.589021
      4          7           0        2.504025   -3.263081   -1.341680
      5          6           0        3.798616   -3.210375   -1.539058
      6          1           0        4.476756   -4.057764   -1.434222
      7          7           0        0.723295   -0.052513   -1.851471
      8          6           0        1.844888    0.602986   -2.167600
      9          1           0        1.716286    1.659130   -2.400568
     10          7           0        3.095615    0.151842   -2.238812
     11          6           0        3.142690   -1.155646   -1.934383
     12          6           0        0.803995   -1.366971   -1.550195
     13          7           0       -0.314493   -2.023025   -1.234374
     14          1           0       -0.301847   -2.996772   -1.004459
     15          1           0       -1.202731   -1.563805   -1.216840
     16          1           0        5.989373   -2.084475   -2.966610
     17          1           0        5.654084   -0.579933   -2.429946
     18          1           0        6.214337   -1.709389   -1.394310
     19          7           0        5.209977    2.395193    0.683895
     20          6           0        3.860746    2.192069    0.846350
     21          6           0        5.845166    3.686768    0.353672
     22          7           0        0.614728    3.426776    0.871543
     23          1           0       -0.307421    3.074055    1.027960
     24          1           0        0.697857    4.400438    0.657612
     25          7           0        2.896356    3.130712    0.732515
     26          6           0        1.692069    2.630633    0.945147
     27          7           0        1.448681    1.312467    1.246355
     28          1           0        0.495251    1.018515    1.393062
     29          6           0        2.425550    0.329281    1.368528
     30          8           0        2.099393   -0.832010    1.643776
     31          6           0        3.724512    0.851423    1.142837
     32          7           0        4.963289    0.225479    1.166058
     33          6           0        5.812110    1.177798    0.888915
     34          1           0        6.892565    1.046289    0.821236
     35          1           0        6.341113    3.605003   -0.510131
     36          1           0        5.140539    4.389770    0.266855
     37          1           0        6.481824    3.942454    1.080379
     38          1           0       -4.498426    0.061718    1.372200
     39          1           0       -4.311465    0.147817    3.122139
     40          1           0       -3.284192    1.129535    2.077009
     41          1           0       -2.587358   -4.261736    2.267812
     42          6           0       -2.271805   -3.221805    2.182933
     43          8           0        0.031117   -3.746347    1.962701
     44          6           0       -0.881879   -2.922959    2.019736
     45          1           0        0.380813   -1.326598    1.806285
     46          7           0       -0.591014   -1.577162    1.922443
     47          8           0       -1.126658    0.629114    1.871119
     48          6           0       -1.480548   -0.532951    1.966109
     49          1           0       -4.231449   -2.398952    2.351815
     50          6           0       -3.163269   -2.224929    2.229128
     51          6           0       -3.789017    0.180249    2.177648
     52          7           0       -2.801865   -0.901673    2.125413
     53          1           0       -6.024537    4.083300   -2.061425
     54          1           0       -4.622660    4.075106   -1.226703
     55          1           0       -6.044818    4.177190   -0.432260
     56          1           0       -3.858653   -2.903434   -0.812416
     57          1           0       -5.499634   -2.439641   -0.859029
     58          7           0       -4.536162   -2.169579   -0.863144
     59          6           0       -4.172092   -0.887502   -0.933205
     60          6           0       -4.555212    1.456674   -1.073884
     61          7           0       -3.253918    1.789914   -1.077619
     62          1           0       -1.418649    0.880643   -1.002812
     63          6           0       -2.492686    0.699871   -1.005205
     64          7           0       -2.855430   -0.585069   -0.934963
     65          1           0       -7.754560    1.917246   -1.139005
     66          6           0       -6.747382    1.501040   -1.102763
     67          7           0       -6.471930    0.222052   -1.025209
     68          6           0       -5.085357    0.180002   -1.006132
     69          6           0       -5.577018    3.777952   -1.220899
     70          7           0       -5.634675    2.305716   -1.136131
 ---------------------------------------------------------------------

 SCF Done:  E(RwB97XD) =  -2048.74896857     A.U. after   15 cycles

 The electronic state is 1-A.
 Alpha  occ. eigenvalues --  -19.25279 -19.21364 -19.20619 -14.52621 -14.51752
 Alpha  occ. eigenvalues --  -14.49064 -14.49017 -14.48069 -14.47164 -14.46809
 Alpha  occ. eigenvalues --  -14.46652 -14.45565 -14.45024 -14.44840 -14.42888
 Alpha  occ. eigenvalues --  -14.42089 -14.41338 -14.40905 -14.40722 -14.40515
 Alpha  occ. eigenvalues --  -10.44824 -10.41262 -10.40582 -10.39483 -10.38253
 Alpha  occ. eigenvalues --  -10.38143 -10.37574 -10.37385 -10.36322 -10.35618
 Alpha  occ. eigenvalues --  -10.34512 -10.34282 -10.33961 -10.33724 -10.33483
 Alpha  occ. eigenvalues --  -10.33087 -10.33032 -10.33004 -10.31178 -10.30658
 Alpha  occ. eigenvalues --  -10.30042 -10.28290 -10.28283  -1.18802  -1.15435
 Alpha  occ. eigenvalues --   -1.13241  -1.12385  -1.10790  -1.10748  -1.09943
 Alpha  occ. eigenvalues --   -1.08692  -1.08553  -1.05412  -1.05133  -1.01809
 Alpha  occ. eigenvalues --   -1.01205  -1.00612  -0.99742  -0.98637  -0.97449
 Alpha  occ. eigenvalues --   -0.96827  -0.96428  -0.92835  -0.90545  -0.87989
 Alpha  occ. eigenvalues --   -0.86105  -0.84324  -0.83483  -0.82954  -0.82687
 Alpha  occ. eigenvalues --   -0.81751  -0.78310  -0.77464  -0.75283  -0.74755
 Alpha  occ. eigenvalues --   -0.73658  -0.72796  -0.72728  -0.70957  -0.70788
 Alpha  occ. eigenvalues --   -0.67445  -0.67271  -0.66175  -0.65986  -0.64639
 Alpha  occ. eigenvalues --   -0.64387  -0.63481  -0.62648  -0.62625  -0.61844
 Alpha  occ. eigenvalues --   -0.60943  -0.60611  -0.60216  -0.59709  -0.59090
 Alpha  occ. eigenvalues --   -0.58990  -0.58361  -0.56881  -0.56442  -0.55709
 Alpha  occ. eigenvalues --   -0.55639  -0.55525  -0.55427  -0.54904  -0.54131
 Alpha  occ. eigenvalues --   -0.53917  -0.53622  -0.53359  -0.53107  -0.53013
 Alpha  occ. eigenvalues --   -0.52218  -0.51804  -0.51279  -0.50403  -0.50269
 Alpha  occ. eigenvalues --   -0.50163  -0.49851  -0.49535  -0.49084  -0.48826
 Alpha  occ. eigenvalues --   -0.48702  -0.48110  -0.47972  -0.47730  -0.47139
 Alpha  occ. eigenvalues --   -0.46662  -0.45599  -0.45533  -0.44772  -0.43365
 Alpha  occ. eigenvalues --   -0.41201  -0.41005  -0.39002  -0.38151  -0.37967
 Alpha  occ. eigenvalues --   -0.37449  -0.37349  -0.36858  -0.35362  -0.35269
 Alpha  occ. eigenvalues --   -0.34866  -0.34091  -0.33317  -0.33260  -0.32996
 Alpha  occ. eigenvalues --   -0.32626  -0.32461  -0.31949  -0.31310  -0.30583
 Alpha  occ. eigenvalues --   -0.30512  -0.30344  -0.26065  -0.25367
 Alpha virt. eigenvalues --    0.03601   0.03624   0.06529   0.08090   0.08880
 Alpha virt. eigenvalues --    0.09138   0.09710   0.10287   0.10976   0.11617
 Alpha virt. eigenvalues --    0.13644   0.14263   0.14436   0.14764   0.14834

 Mulliken charges:
               1
     1  N   -0.309238
     2  C    0.183023
     3  C    0.062775
     4  N   -0.257590
     5  C    0.148357
     6  H    0.028191
     7  N   -0.293454
     8  C    0.124038
     9  H    0.012453
    10  N   -0.277715
    11  C    0.251935
    12  C    0.081642
    13  N   -0.069323
    14  H    0.114543
    15  H    0.081945
    16  H    0.019900
    17  H    0.029643
    18  H    0.032601
    19  N   -0.311007
    20  C    0.259848
    21  C    0.181619
    22  N   -0.122750
    23  H    0.121814
    24  H    0.117889
    25  N   -0.311457
    26  C    0.241702
    27  N   -0.138260
    28  H    0.119269
    29  C    0.181726
    30  O   -0.319293
    31  C   -0.006518
    32  N   -0.233972
    33  C    0.122055
    34  H    0.022282
    35  H    0.027020
    36  H    0.030371
    37  H    0.025000
    38  H    0.067283
    39  H    0.057650
    40  H    0.076546
    41  H    0.025482
    42  C   -0.119662
    43  O   -0.260171
    44  C    0.167418
    45  H    0.135462
    46  N   -0.124703
    47  O   -0.350977
    48  C    0.353435
    49  H    0.040979
    50  C    0.166644
    51  C    0.035592
    52  N   -0.277824
    53  H    0.034334
    54  H    0.040537
    55  H    0.030532
    56  H    0.118021
    57  H    0.119893
    58  N   -0.064889
    59  C    0.074784
    60  C    0.240277
    61  N   -0.268294
    62  H    0.028556
    63  C    0.174199
    64  N   -0.310140
    65  H    0.040157
    66  C    0.140627
    67  N   -0.258613
    68  C    0.025497
    69  C    0.180700
    70  N   -0.310400
 Sum of Mulliken charges =  -0.00000

 Dipole moment (field-independent basis, Debye):
    X=             -8.0084    Y=              6.9129    Z=             -0.8060  Tot=             10.6100
 Quadrupole moment (field-independent basis, Debye-Ang):
   XX=           -165.0449   YY=           -218.3748   ZZ=           -250.9734
   XY=              5.7796   XZ=            -17.6740   YZ=              7.9448

 Normal termination of Gaussian 16 at Tue Jan 23 14:57:17 2018.
