 Gaussian 16, Revision A.03,
 Gaussian 16:  EM64L-G16RevA.03 25-Dec-2016

 ---------------------------------------
 #p wb97xd/cc-pvdz sp scf=(maxcycles=20)
 ---------------------------------------

 ------------------
 Base pair stacking
 ------------------
 Symbolic Z-matrix:
 Charge =  0 Multiplicity = 1

                         Standard orientation:
 ---------------------------------------------------------------------
 Center     Atomic      Atomic             Coordinates (Angstroms)
 Number     Number       Type             X           Y           Z
 ---------------------------------------------------------------------
      1          7           0        5.829868   -1.690459   -1.031408
      2          6           0        7.221339   -1.198834   -1.043406
      3          6           0        3.635756   -1.806498   -1.129857
      4          7           0        4.081564   -3.095533   -0.876114
      5          6           0        5.385602   -2.974022   -0.826952
      6          1           0        6.078345   -3.795739   -0.643018
      7          7           0        2.251634    0.059294   -1.537256
      8          6           0        3.374690    0.781609   -1.604911
      9          1           0        3.233451    1.843496   -1.801676
     10          7           0        4.640067    0.390990   -1.466653
     11          6           0        4.701936   -0.929506   -1.228146
     12          6           0        2.347454   -1.266482   -1.295968
     13          7           0        1.227526   -1.989202   -1.228069
     14          1           0        1.251016   -2.973832   -1.051462
     15          1           0        0.327351   -1.571330   -1.351352
     16          1           0        7.735535   -1.667039   -1.762137
     17          1           0        7.226440   -0.214717   -1.218375
     18          1           0        7.648865   -1.380444   -0.157837
     19          7           0        3.641545    2.586265    1.436134
     20          6           0        2.296821    2.315934    1.354389
     21          6           0        4.263950    3.903067    1.192560
     22          7           0       -0.953773    3.379706    0.751266
     23          1           0       -1.870944    2.982203    0.745833
     24          1           0       -0.879516    4.352371    0.529608
     25          7           0        1.325961    3.200732    1.040341
     26          6           0        0.128526    2.642368    1.042550
     27          7           0       -0.102600    1.318951    1.330048
     28          1           0       -1.051515    0.978308    1.307762
     29          6           0        0.881115    0.390485    1.655806
     30          8           0        0.565983   -0.781098    1.898355
     31          6           0        2.172836    0.975579    1.657487
     32          7           0        3.414733    0.415692    1.924154
     33          6           0        4.253362    1.405870    1.781112
     34          1           0        5.332851    1.329754    1.915954
     35          1           0        4.913842    3.831725    0.436688
     36          1           0        3.554428    4.566640    0.959045
     37          1           0        4.742832    4.204734    2.016252
     38          1           0       -5.904121   -0.238151    0.399417
     39          1           0       -6.047015   -0.110822    2.150989
     40          1           0       -4.893157    0.904167    1.285098
     41          1           0       -3.985384   -4.439040    1.747576
     42          6           0       -3.709881   -3.385752    1.693483
     43          8           0       -1.383315   -3.793217    1.912905
     44          6           0       -2.329656   -3.017737    1.779327
     45          1           0       -1.127375   -1.361737    1.757030
     46          7           0       -2.090804   -1.660562    1.700150
     47          8           0       -2.713116    0.513448    1.491344
     48          6           0       -3.022248   -0.663600    1.551692
     49          1           0       -5.704315   -2.663427    1.478267
     50          6           0       -4.641415   -2.436112    1.548452
     51          6           0       -5.361714   -0.068218    1.317555
     52          7           0       -4.331050   -1.097876    1.476495
     53          1           0       -4.559556    3.900435   -2.776447
     54          1           0       -3.335323    3.902084   -1.697856
     55          1           0       -4.882039    3.892383   -1.176646
     56          1           0       -2.280785   -3.048528   -1.517635
     57          1           0       -3.908459   -2.655101   -1.843199
     58          7           0       -2.976600   -2.343333   -1.654347
     59          6           0       -2.676251   -1.044659   -1.587989
     60          6           0       -3.154369    1.284679   -1.673464
     61          7           0       -1.894388    1.674230   -1.418261
     62          1           0       -0.056857    0.843387   -1.052493
     63          6           0       -1.100940    0.616206   -1.263524
     64          7           0       -1.399862   -0.685268   -1.329615
     65          1           0       -6.308293    1.607734   -2.306334
     66          6           0       -5.303520    1.234622   -2.105957
     67          7           0       -4.977594   -0.033403   -2.046210
     68          6           0       -3.617610   -0.015739   -1.772598
     69          6           0       -4.257060    3.563593   -1.884797
     70          7           0       -4.248948    2.087817   -1.889935
 ---------------------------------------------------------------------

 SCF Done:  E(RwB97XD) =  -2048.74734503     A.U. after   15 cycles

 The electronic state is 1-A.
 Alpha  occ. eigenvalues --  -19.25691 -19.21887 -19.20434 -14.52535 -14.52266
 Alpha  occ. eigenvalues --  -14.48573 -14.48499 -14.48270 -14.47657 -14.46640
 Alpha  occ. eigenvalues --  -14.46073 -14.45555 -14.44227 -14.44131 -14.42297
 Alpha  occ. eigenvalues --  -14.41751 -14.41201 -14.40869 -14.40582 -14.40189
 Alpha  occ. eigenvalues --  -10.45292 -10.40858 -10.39992 -10.39926 -10.38050
 Alpha  occ. eigenvalues --  -10.37991 -10.37687 -10.37169 -10.35628 -10.35370
 Alpha  occ. eigenvalues --  -10.34712 -10.34177 -10.34027 -10.33888 -10.33179
 Alpha  occ. eigenvalues --  -10.33073 -10.33014 -10.32623 -10.31017 -10.30879
 Alpha  occ. eigenvalues --  -10.30668 -10.28356 -10.27804  -1.19280  -1.15228
 Alpha  occ. eigenvalues --   -1.12974  -1.12898  -1.11143  -1.10338  -1.09257
 Alpha  occ. eigenvalues --   -1.09139  -1.08262  -1.04943  -1.04800  -1.02300
 Alpha  occ. eigenvalues --   -1.01061  -1.00389  -0.99341  -0.98308  -0.96917
 Alpha  occ. eigenvalues --   -0.96681  -0.96328  -0.92619  -0.90906  -0.87662
 Alpha  occ. eigenvalues --   -0.86045  -0.83823  -0.83782  -0.83324  -0.82241
 Alpha  occ. eigenvalues --   -0.82197  -0.78720  -0.77042  -0.74874  -0.74325
 Alpha  occ. eigenvalues --   -0.73354  -0.73158  -0.72813  -0.70964  -0.70448
 Alpha  occ. eigenvalues --   -0.67063  -0.66844  -0.66341  -0.66217  -0.64324
 Alpha  occ. eigenvalues --   -0.64255  -0.63540  -0.62652  -0.62515  -0.61405
 Alpha  occ. eigenvalues --   -0.60645  -0.60378  -0.60332  -0.59487  -0.59343
 Alpha  occ. eigenvalues --   -0.59142  -0.57989  -0.56676  -0.56397  -0.56154
 Alpha  occ. eigenvalues --   -0.55812  -0.55548  -0.55316  -0.54495  -0.54169
 Alpha  occ. eigenvalues --   -0.53962  -0.53429  -0.53370  -0.53126  -0.52727
 Alpha  occ. eigenvalues --   -0.52648  -0.52149  -0.51677  -0.50642  -0.50127
 Alpha  occ. eigenvalues --   -0.49957  -0.49754  -0.49302  -0.48967  -0.48755
 Alpha  occ. eigenvalues --   -0.48623  -0.48233  -0.48059  -0.47386  -0.47174
 Alpha  occ. eigenvalues --   -0.46814  -0.45597  -0.44907  -0.44650  -0.43722
 Alpha  occ. eigenvalues --   -0.41009  -0.40847  -0.39301  -0.37746  -0.37690
 Alpha  occ. eigenvalues --   -0.37106  -0.37048  -0.36874  -0.35880  -0.34721
 Alpha  occ. eigenvalues --   -0.34398  -0.33577  -0.33401  -0.33047  -0.32965
 Alpha  occ. eigenvalues --   -0.32472  -0.32237  -0.31958  -0.31665  -0.30796
 Alpha  occ. eigenvalues --   -0.30389  -0.29860  -0.25790  -0.24857
 Alpha virt. eigenvalues --    0.03167   0.03934   0.07147   0.07969   0.08573
 Alpha virt. eigenvalues --    0.09495   0.10024   0.10374   0.11191   0.11788
 Alpha virt. eigenvalues --    0.12562   0.14130   0.14425   0.14861   0.15189

 Mulliken charges:
               1
     1  N   -0.313620
     2  C    0.181089
     3  C    0.054076
     4  N   -0.260494
     5  C    0.136510
     6  H    0.026157
     7  N   -0.291363
     8  C    0.137167
     9  H    0.009765
    10  N   -0.289749
    11  C    0.253039
    12  C    0.110759
    13  N   -0.055961
    14  H    0.110002
    15  H    0.083899
    16  H    0.024805
    17  H    0.030993
    18  H    0.026675
    19  N   -0.304506
    20  C    0.241445
    21  C    0.180264
    22  N   -0.093787
    23  H    0.111556
    24  H    0.112243
    25  N   -0.305318
    26  C    0.218015
    27  N   -0.145889
    28  H    0.126674
    29  C    0.175986
    30  O   -0.323040
    31  C   -0.002333
    32  N   -0.225266
    33  C    0.132738
    34  H    0.019598
    35  H    0.030231
    36  H    0.027415
    37  H    0.023239
    38  H    0.062732
    39  H    0.058231
    40  H    0.069130
    41  H    0.028720
    42  C   -0.111994
    43  O   -0.265423
    44  C    0.166841
    45  H    0.132381
    46  N   -0.120931
    47  O   -0.339926
    48  C    0.336243
    49  H    0.046999
    50  C    0.166162
    51  C    0.037041
    52  N   -0.282533
    53  H    0.036291
    54  H    0.035998
    55  H    0.028117
    56  H    0.125461
    57  H    0.116505
    58  N   -0.058995
    59  C    0.081478
    60  C    0.255299
    61  N   -0.279583
    62  H    0.045745
    63  C    0.155274
    64  N   -0.299240
    65  H    0.036563
    66  C    0.135394
    67  N   -0.264418
    68  C    0.025971
    69  C    0.178575
    70  N   -0.311122
 Sum of Mulliken charges =  -0.00000

 Dipole moment (field-independent basis, Debye):
    X=             -8.0264    Y=              6.0816    Z=             -2.5875  Tot=             10.3973
 Quadrupole moment (field-independent basis, Debye-Ang):
   XX=           -153.2351   YY=           -219.7210   ZZ=           -255.0885
   XY=             -0.7355   XZ=             -0.1678   YZ=              8.9211

 Normal termination of Gaussian 16 at Wed Jan 24 03:53:58 2018.
