 Gaussian 16, Revision A.03,
 Gaussian 16:  EM64L-G16RevA.03 25-Dec-2016

 ---------------------------------------
 #p wb97xd/cc-pvdz sp scf=(maxcycles=20)
 ---------------------------------------

 ------------------
 Base pair stacking
 ------------------
 Symbolic Z-matrix:
 Charge =  0 Multiplicity = 1

                         Standard orientation:
 ---------------------------------------------------------------------
 Center     Atomic      Atomic             Coordinates (Angstroms)
 Number     Number       Type             X           Y           Z
 ---------------------------------------------------------------------
      1          7           0       -6.465953   -1.635738    0.497036
      2          6           0       -7.860045   -1.171451    0.634631
      3          6           0       -4.273626   -1.779263    0.599117
      4          7           0       -4.707232   -2.922177   -0.056968
      5          6           0       -6.010675   -2.789968   -0.092210
      6          1           0       -6.695117   -3.511107   -0.539904
      7          7           0       -2.908114   -0.138379    1.602049
      8          6           0       -4.036230    0.527026    1.870671
      9          1           0       -3.904745    1.472664    2.394849
     10          7           0       -5.296464    0.201240    1.590337
     11          6           0       -5.346337   -0.976761    0.946711
     12          6           0       -2.991863   -1.320481    0.953428
     13          7           0       -1.866864   -1.986187    0.684375
     14          1           0       -1.881443   -2.864973    0.206105
     15          1           0       -0.971623   -1.629419    0.951572
     16          1           0       -8.385872   -1.841717    1.158489
     17          1           0       -7.874011   -0.292600    1.110613
     18          1           0       -8.268868   -1.064291   -0.271665
     19          7           0       -2.864255    2.922338   -1.623444
     20          6           0       -1.533534    2.598509   -1.512220
     21          6           0       -3.426386    4.281165   -1.488185
     22          7           0        1.760711    3.557832   -0.974268
     23          1           0        2.658709    3.120752   -0.931805
     24          1           0        1.730456    4.547317   -0.830336
     25          7           0       -0.524044    3.460321   -1.262685
     26          6           0        0.646579    2.849722   -1.213416
     27          7           0        0.817665    1.498613   -1.394402
     28          1           0        1.749930    1.118051   -1.339411
     29          6           0       -0.206630    0.592978   -1.652247
     30          8           0        0.055203   -0.607195   -1.799842
     31          6           0       -1.470212    1.234173   -1.708089
     32          7           0       -2.735718    0.711964   -1.937668
     33          6           0       -3.528520    1.747411   -1.878287
     34          1           0       -4.609992    1.709994   -2.013501
     35          1           0       -4.080890    4.299276   -0.733140
     36          1           0       -2.687871    4.928182   -1.303166
     37          1           0       -3.888752    4.538323   -2.336058
     38          1           0        6.539317   -0.242066   -0.307645
     39          1           0        6.692596   -0.259970   -2.062872
     40          1           0        5.584084    0.871538   -1.286829
     41          1           0        4.433942   -4.444741   -1.333022
     42          6           0        4.206804   -3.379058   -1.363725
     43          8           0        1.864613   -3.696482   -1.565018
     44          6           0        2.845098   -2.956656   -1.486944
     45          1           0        1.719811   -1.251173   -1.602613
     46          7           0        2.668404   -1.588021   -1.516347
     47          8           0        3.389007    0.565175   -1.475385
     48          6           0        3.644094   -0.625794   -1.440962
     49          1           0        6.231607   -2.733325   -1.193497
     50          6           0        5.180425   -2.464214   -1.288032
     51          6           0        6.007730   -0.120648   -1.239703
     52          7           0        4.931444   -1.111769   -1.323582
     53          1           0        3.855932    3.109263    4.128452
     54          1           0        2.653416    3.452011    3.080323
     55          1           0        4.210228    3.605390    2.614592
     56          1           0        1.640735   -3.086559    0.697689
     57          1           0        3.259427   -2.817528    1.164106
     58          7           0        2.329815   -2.461127    1.063930
     59          6           0        2.023747   -1.207385    1.403943
     60          6           0        2.487305    0.975841    2.228795
     61          7           0        1.230546    1.427313    2.083402
     62          1           0       -0.594767    0.756034    1.436699
     63          6           0        0.446141    0.472804    1.586884
     64          7           0        0.750801   -0.783514    1.245712
     65          1           0        5.626202    1.079618    2.996082
     66          6           0        4.627674    0.789738    2.667682
     67          7           0        4.309953   -0.394507    2.204777
     68          6           0        2.955601   -0.290071    1.922690
     69          6           0        3.573095    3.070871    3.170049
     70          7           0        3.572958    1.668678    2.709793
 ---------------------------------------------------------------------

 SCF Done:  E(RwB97XD) =  -2048.74050749     A.U. after   15 cycles

 The electronic state is 1-A.
 Alpha  occ. eigenvalues --  -19.26183 -19.22804 -19.20865 -14.52864 -14.51643
 Alpha  occ. eigenvalues --  -14.48906 -14.48490 -14.48116 -14.47213 -14.47075
 Alpha  occ. eigenvalues --  -14.46460 -14.44751 -14.43254 -14.43140 -14.42278
 Alpha  occ. eigenvalues --  -14.41708 -14.41102 -14.40951 -14.40576 -14.39812
 Alpha  occ. eigenvalues --  -10.45838 -10.41518 -10.40904 -10.38698 -10.38460
 Alpha  occ. eigenvalues --  -10.38429 -10.37264 -10.36229 -10.35400 -10.35011
 Alpha  occ. eigenvalues --  -10.34707 -10.34539 -10.33776 -10.33391 -10.33301
 Alpha  occ. eigenvalues --  -10.33032 -10.32767 -10.31715 -10.31620 -10.30987
 Alpha  occ. eigenvalues --  -10.30796 -10.28297 -10.28169  -1.19791  -1.14338
 Alpha  occ. eigenvalues --   -1.13900  -1.13449  -1.11045  -1.10753  -1.09749
 Alpha  occ. eigenvalues --   -1.08837  -1.08128  -1.04616  -1.03752  -1.02914
 Alpha  occ. eigenvalues --   -1.00119  -1.00086  -1.00023  -0.98767  -0.96729
 Alpha  occ. eigenvalues --   -0.96649  -0.95709  -0.92260  -0.91597  -0.86733
 Alpha  occ. eigenvalues --   -0.85127  -0.84283  -0.83938  -0.83653  -0.82640
 Alpha  occ. eigenvalues --   -0.82034  -0.79382  -0.76064  -0.74827  -0.73958
 Alpha  occ. eigenvalues --   -0.73804  -0.73771  -0.72553  -0.70716  -0.69449
 Alpha  occ. eigenvalues --   -0.67659  -0.66998  -0.65949  -0.65757  -0.64856
 Alpha  occ. eigenvalues --   -0.64033  -0.63275  -0.62922  -0.62338  -0.62005
 Alpha  occ. eigenvalues --   -0.60144  -0.59954  -0.59896  -0.59538  -0.58932
 Alpha  occ. eigenvalues --   -0.58695  -0.58574  -0.56743  -0.56301  -0.56216
 Alpha  occ. eigenvalues --   -0.56172  -0.55037  -0.54852  -0.54731  -0.54380
 Alpha  occ. eigenvalues --   -0.53926  -0.53726  -0.53193  -0.52882  -0.52791
 Alpha  occ. eigenvalues --   -0.52689  -0.51921  -0.51500  -0.50475  -0.50450
 Alpha  occ. eigenvalues --   -0.49903  -0.49887  -0.49302  -0.49272  -0.49127
 Alpha  occ. eigenvalues --   -0.48514  -0.48419  -0.48003  -0.47756  -0.47680
 Alpha  occ. eigenvalues --   -0.46647  -0.45679  -0.44731  -0.44587  -0.43496
 Alpha  occ. eigenvalues --   -0.40791  -0.39842  -0.39759  -0.37494  -0.37456
 Alpha  occ. eigenvalues --   -0.37061  -0.36842  -0.36585  -0.35873  -0.34466
 Alpha  occ. eigenvalues --   -0.34000  -0.33887  -0.33312  -0.33172  -0.33030
 Alpha  occ. eigenvalues --   -0.32826  -0.32653  -0.32495  -0.31990  -0.30603
 Alpha  occ. eigenvalues --   -0.30058  -0.28947  -0.25694  -0.25337
 Alpha virt. eigenvalues --    0.02237   0.05005   0.07272   0.08332   0.08768
 Alpha virt. eigenvalues --    0.09030   0.09533   0.11302   0.11482   0.11980
 Alpha virt. eigenvalues --    0.12753   0.14210   0.14728   0.14845   0.15408

 Mulliken charges:
               1
     1  N   -0.311519
     2  C    0.180834
     3  C    0.042726
     4  N   -0.257650
     5  C    0.132310
     6  H    0.025072
     7  N   -0.294806
     8  C    0.133257
     9  H    0.009369
    10  N   -0.292538
    11  C    0.238842
    12  C    0.119342
    13  N   -0.049570
    14  H    0.112092
    15  H    0.092671
    16  H    0.025137
    17  H    0.033490
    18  H    0.024329
    19  N   -0.312429
    20  C    0.250808
    21  C    0.180859
    22  N   -0.122817
    23  H    0.113820
    24  H    0.117231
    25  N   -0.308778
    26  C    0.246198
    27  N   -0.141707
    28  H    0.114665
    29  C    0.176842
    30  O   -0.321915
    31  C   -0.001954
    32  N   -0.225101
    33  C    0.131962
    34  H    0.027818
    35  H    0.030650
    36  H    0.028472
    37  H    0.024696
    38  H    0.064125
    39  H    0.059201
    40  H    0.073099
    41  H    0.031482
    42  C   -0.110494
    43  O   -0.273802
    44  C    0.128308
    45  H    0.136818
    46  N   -0.108149
    47  O   -0.348151
    48  C    0.351541
    49  H    0.051378
    50  C    0.178722
    51  C    0.041687
    52  N   -0.285374
    53  H    0.032551
    54  H    0.043258
    55  H    0.022578
    56  H    0.129708
    57  H    0.110629
    58  N   -0.053346
    59  C    0.087724
    60  C    0.242426
    61  N   -0.268991
    62  H    0.039047
    63  C    0.167534
    64  N   -0.300247
    65  H    0.031373
    66  C    0.134376
    67  N   -0.268620
    68  C    0.019963
    69  C    0.179686
    70  N   -0.312747
 Sum of Mulliken charges =  -0.00000

 Dipole moment (field-independent basis, Debye):
    X=              8.5897    Y=              6.1308    Z=              1.2832  Tot=             10.6309
 Quadrupole moment (field-independent basis, Debye-Ang):
   XX=           -149.5722   YY=           -219.2324   ZZ=           -250.0964
   XY=              0.6875   XZ=              7.7092   YZ=             -2.7030

 Normal termination of Gaussian 16 at Wed Jan 24 01:11:49 2018.
