 Gaussian 16, Revision A.03,
 Gaussian 16:  EM64L-G16RevA.03 25-Dec-2016

 ---------------------------------------
 #p wb97xd/cc-pvdz sp scf=(maxcycles=20)
 ---------------------------------------

 ------------------
 Base pair stacking
 ------------------
 Symbolic Z-matrix:
 Charge =  0 Multiplicity = 1

                         Standard orientation:
 ---------------------------------------------------------------------
 Center     Atomic      Atomic             Coordinates (Angstroms)
 Number     Number       Type             X           Y           Z
 ---------------------------------------------------------------------
      1          7           0       -7.201354   -1.431418    0.102071
      2          6           0       -8.577199   -0.907099    0.001311
      3          6           0       -5.032913   -1.608831    0.424131
      4          7           0       -5.471418   -2.865842    0.033763
      5          6           0       -6.760267   -2.708635   -0.144634
      6          1           0       -7.443531   -3.498190   -0.458802
      7          7           0       -3.668085    0.189360    1.107284
      8          6           0       -4.779054    0.933221    1.106541
      9          1           0       -4.641175    1.975221    1.391980
     10          7           0       -6.028899    0.584816    0.807540
     11          6           0       -6.087926   -0.714235    0.470773
     12          6           0       -3.760661   -1.113914    0.763776
     13          7           0       -2.652792   -1.858071    0.763916
     14          1           0       -2.674428   -2.827353    0.516424
     15          1           0       -1.763887   -1.472313    1.011270
     16          1           0       -9.173829   -1.410510    0.626445
     17          1           0       -8.583808    0.062501    0.244106
     18          1           0       -8.910152   -1.016732   -0.935234
     19          7           0       -2.050594    2.646753   -1.781756
     20          6           0       -0.735271    2.332206   -1.538745
     21          6           0       -2.629534    4.003784   -1.718649
     22          7           0        2.487229    3.317555   -0.698345
     23          1           0        3.379004    2.886358   -0.564002
     24          1           0        2.438575    4.308537   -0.570654
     25          7           0        0.241390    3.202982   -1.204198
     26          6           0        1.404680    2.599979   -1.034608
     27          7           0        1.598777    1.247791   -1.180982
     28          1           0        2.523186    0.873459   -1.031585
     29          6           0        0.608381    0.333002   -1.524666
     30          8           0        0.888871   -0.867316   -1.631006
     31          6           0       -0.646943    0.965968   -1.710145
     32          7           0       -1.881953    0.433492   -2.053843
     33          6           0       -2.681665    1.464877   -2.084347
     34          1           0       -3.744882    1.419400   -2.322597
     35          1           0       -3.353848    4.027300   -1.030448
     36          1           0       -1.915350    4.657388   -1.471653
     37          1           0       -3.009244    4.247773   -2.610339
     38          1           0        7.197204   -0.445490    0.473963
     39          1           0        7.519010   -0.484042   -1.257967
     40          1           0        6.335540    0.650320   -0.606824
     41          1           0        5.220280   -4.672838   -0.695578
     42          6           0        4.992136   -3.608973   -0.761647
     43          8           0        2.681766   -3.942714   -1.183509
     44          6           0        3.646672   -3.196199   -1.020842
     45          1           0        2.529743   -1.498949   -1.266151
     46          7           0        3.467181   -1.829095   -1.084615
     47          8           0        4.170329    0.328673   -1.001990
     48          6           0        4.426521   -0.860247   -0.927923
     49          1           0        6.988045   -2.949218   -0.405464
     50          6           0        5.949605   -2.687528   -0.604245
     51          6           0        6.757349   -0.338683   -0.506435
     52          7           0        5.698840   -1.337116   -0.680898
     53          1           0        3.036737    3.764683    3.330938
     54          1           0        1.935786    3.870995    2.131481
     55          1           0        3.529166    3.858389    1.777821
     56          1           0        0.784917   -3.022262    1.347956
     57          1           0        2.374805   -2.692978    1.871341
     58          7           0        1.474266   -2.345761    1.607340
     59          6           0        1.205639   -1.038482    1.601776
     60          6           0        1.712590    1.266799    1.902457
     61          7           0        0.494393    1.704362    1.543375
     62          1           0       -1.307463    0.946845    0.926842
     63          6           0       -0.296267    0.679653    1.230740
     64          7           0       -0.029073   -0.630371    1.235682
     65          1           0        4.785383    1.466599    2.887466
     66          6           0        3.801582    1.133388    2.555730
     67          7           0        3.461768   -0.118982    2.371989
     68          6           0        2.139602   -0.048551    1.957671
     69          6           0        2.826008    3.497511    2.390610
     70          7           0        2.791484    2.025533    2.290181
 ---------------------------------------------------------------------

 SCF Done:  E(RwB97XD) =  -2048.74186071     A.U. after   15 cycles

 The electronic state is 1-A.
 Alpha  occ. eigenvalues --  -19.26009 -19.22283 -19.20854 -14.52591 -14.51210
 Alpha  occ. eigenvalues --  -14.49156 -14.48920 -14.48075 -14.47495 -14.47134
 Alpha  occ. eigenvalues --  -14.46354 -14.44180 -14.42537 -14.42495 -14.42413
 Alpha  occ. eigenvalues --  -14.42271 -14.41843 -14.41277 -14.40922 -14.40501
 Alpha  occ. eigenvalues --  -10.45660 -10.41572 -10.40377 -10.38492 -10.38247
 Alpha  occ. eigenvalues --  -10.37968 -10.36748 -10.35748 -10.35659 -10.35501
 Alpha  occ. eigenvalues --  -10.34521 -10.34494 -10.34120 -10.33773 -10.33461
 Alpha  occ. eigenvalues --  -10.33431 -10.33054 -10.31253 -10.31252 -10.31148
 Alpha  occ. eigenvalues --  -10.30931 -10.28952 -10.28369  -1.19572  -1.13919
 Alpha  occ. eigenvalues --   -1.13442  -1.13281  -1.11754  -1.10781  -1.09486
 Alpha  occ. eigenvalues --   -1.08977  -1.07558  -1.05337  -1.03136  -1.02699
 Alpha  occ. eigenvalues --   -1.00752  -1.00413  -0.99579  -0.98751  -0.97325
 Alpha  occ. eigenvalues --   -0.96735  -0.95151  -0.92973  -0.91220  -0.86288
 Alpha  occ. eigenvalues --   -0.84739  -0.84329  -0.84310  -0.83863  -0.82665
 Alpha  occ. eigenvalues --   -0.82653  -0.79052  -0.75549  -0.74866  -0.74089
 Alpha  occ. eigenvalues --   -0.73556  -0.73270  -0.73231  -0.71426  -0.68942
 Alpha  occ. eigenvalues --   -0.67776  -0.66738  -0.66640  -0.65291  -0.64659
 Alpha  occ. eigenvalues --   -0.63975  -0.63101  -0.62933  -0.62707  -0.62218
 Alpha  occ. eigenvalues --   -0.60497  -0.59745  -0.59700  -0.59141  -0.59105
 Alpha  occ. eigenvalues --   -0.58816  -0.58211  -0.56829  -0.56783  -0.56720
 Alpha  occ. eigenvalues --   -0.56165  -0.55681  -0.54756  -0.54576  -0.54042
 Alpha  occ. eigenvalues --   -0.53857  -0.53538  -0.53149  -0.52665  -0.52526
 Alpha  occ. eigenvalues --   -0.52148  -0.51999  -0.51481  -0.51102  -0.50513
 Alpha  occ. eigenvalues --   -0.50359  -0.49626  -0.49414  -0.49043  -0.48790
 Alpha  occ. eigenvalues --   -0.48577  -0.48460  -0.48005  -0.47652  -0.47468
 Alpha  occ. eigenvalues --   -0.47315  -0.45458  -0.45316  -0.44225  -0.43046
 Alpha  occ. eigenvalues --   -0.41543  -0.39615  -0.39318  -0.37668  -0.37536
 Alpha  occ. eigenvalues --   -0.37447  -0.36364  -0.36067  -0.35922  -0.35020
 Alpha  occ. eigenvalues --   -0.33904  -0.33858  -0.33459  -0.33033  -0.32945
 Alpha  occ. eigenvalues --   -0.32506  -0.32323  -0.32143  -0.32034  -0.31342
 Alpha  occ. eigenvalues --   -0.30688  -0.28414  -0.26139  -0.25652
 Alpha virt. eigenvalues --    0.02914   0.05409   0.07576   0.08186   0.08312
 Alpha virt. eigenvalues --    0.09287   0.09466   0.10601   0.11402   0.12352
 Alpha virt. eigenvalues --    0.12774   0.13673   0.14460   0.14671   0.15223

 Mulliken charges:
               1
     1  N   -0.310864
     2  C    0.180873
     3  C    0.030307
     4  N   -0.258520
     5  C    0.133640
     6  H    0.027725
     7  N   -0.288393
     8  C    0.126743
     9  H    0.011488
    10  N   -0.288255
    11  C    0.240031
    12  C    0.120316
    13  N   -0.052066
    14  H    0.108062
    15  H    0.089099
    16  H    0.026336
    17  H    0.035249
    18  H    0.026164
    19  N   -0.308327
    20  C    0.242798
    21  C    0.181850
    22  N   -0.116641
    23  H    0.117038
    24  H    0.117125
    25  N   -0.289351
    26  C    0.222793
    27  N   -0.120672
    28  H    0.118118
    29  C    0.159649
    30  O   -0.321366
    31  C   -0.011795
    32  N   -0.219558
    33  C    0.131727
    34  H    0.031284
    35  H    0.030645
    36  H    0.027974
    37  H    0.024788
    38  H    0.061040
    39  H    0.060451
    40  H    0.072329
    41  H    0.031881
    42  C   -0.111595
    43  O   -0.270782
    44  C    0.168071
    45  H    0.135634
    46  N   -0.135928
    47  O   -0.352907
    48  C    0.367252
    49  H    0.048735
    50  C    0.176669
    51  C    0.042391
    52  N   -0.296539
    53  H    0.032127
    54  H    0.043843
    55  H    0.003361
    56  H    0.123259
    57  H    0.115860
    58  N   -0.054312
    59  C    0.107643
    60  C    0.231712
    61  N   -0.260187
    62  H    0.044657
    63  C    0.152662
    64  N   -0.297837
    65  H    0.025989
    66  C    0.128285
    67  N   -0.266335
    68  C    0.023630
    69  C    0.179196
    70  N   -0.306273
 Sum of Mulliken charges =  -0.00000

 Dipole moment (field-independent basis, Debye):
    X=              7.7452    Y=              5.6548    Z=              2.1616  Tot=              9.8304
 Quadrupole moment (field-independent basis, Debye-Ang):
   XX=           -143.2189   YY=           -220.9001   ZZ=           -250.8752
   XY=              6.1610   XZ=             15.0188   YZ=             -7.9609

 Normal termination of Gaussian 16 at Wed Jan 24 07:44:53 2018.
