 Gaussian 16, Revision A.03,
 Gaussian 16:  EM64L-G16RevA.03 25-Dec-2016

 ---------------------------------------
 #p wb97xd/cc-pvdz sp scf=(maxcycles=20)
 ---------------------------------------

 ------------------
 Base pair stacking
 ------------------
 Symbolic Z-matrix:
 Charge =  0 Multiplicity = 1

                         Standard orientation:
 ---------------------------------------------------------------------
 Center     Atomic      Atomic             Coordinates (Angstroms)
 Number     Number       Type             X           Y           Z
 ---------------------------------------------------------------------
      1          7           0       -6.951987   -1.472298    0.248100
      2          6           0       -8.331147   -0.951988    0.176068
      3          6           0       -4.777995   -1.645472    0.532883
      4          7           0       -5.218253   -2.899223    0.134120
      5          6           0       -6.510382   -2.744713   -0.021484
      6          1           0       -7.195818   -3.532905   -0.334327
      7          7           0       -3.408726    0.149311    1.216112
      8          6           0       -4.522216    0.888922    1.242516
      9          1           0       -4.383461    1.927841    1.538567
     10          7           0       -5.775480    0.539499    0.959447
     11          6           0       -5.835308   -0.755510    0.607624
     12          6           0       -3.502188   -1.149973    0.858039
     13          7           0       -2.391804   -1.889895    0.831080
     14          1           0       -2.413980   -2.856120    0.571992
     15          1           0       -1.500400   -1.503848    1.068813
     16          1           0       -8.915771   -1.465311    0.804476
     17          1           0       -8.337287    0.014529    0.430921
     18          1           0       -8.678831   -1.051325   -0.756264
     19          7           0       -2.336594    2.673607   -1.764245
     20          6           0       -1.016400    2.361058   -1.546428
     21          6           0       -2.919296    4.027558   -1.675019
     22          7           0        2.215748    3.348150   -0.746031
     23          1           0        3.111119    2.918702   -0.631453
     24          1           0        2.165624    4.337294   -0.605325
     25          7           0       -0.037563    3.231333   -1.216932
     26          6           0        1.130471    2.630686   -1.073635
     27          7           0        1.327009    1.281146   -1.239840
     28          1           0        2.255050    0.908498   -1.110043
     29          6           0        0.334449    0.366923   -1.578794
     30          8           0        0.617481   -0.830924   -1.704487
     31          6           0       -0.925961    0.997381   -1.736128
     32          7           0       -2.164462    0.464518   -2.066403
     33          6           0       -2.968246    1.493163   -2.071212
     34          1           0       -4.035023    1.446614   -2.292818
     35          1           0       -3.632447    4.039849   -0.974972
     36          1           0       -2.203550    4.680763   -1.431516
     37          1           0       -3.314257    4.281079   -2.557371
     38          1           0        6.957514   -0.411233    0.303403
     39          1           0        7.251379   -0.427229   -1.433851
     40          1           0        6.074556    0.694546   -0.749693
     41          1           0        4.977053   -4.631302   -0.886306
     42          6           0        4.744061   -3.567564   -0.935510
     43          8           0        2.428384   -3.904815   -1.324107
     44          6           0        3.393116   -3.156711   -1.167805
     45          1           0        2.266299   -1.460809   -1.374020
     46          7           0        3.207727   -1.789613   -1.211756
     47          8           0        3.904385    0.369611   -1.113786
     48          6           0        4.166009   -0.819160   -1.058595
     49          1           0        6.743115   -2.904717   -0.603463
     50          6           0        5.700659   -2.644514   -0.782195
     51          6           0        6.501463   -0.294021   -0.668378
     52          7           0        5.443847   -1.294220   -0.838070
     53          1           0        3.318393    3.722266    3.375293
     54          1           0        2.197796    3.839197    2.195178
     55          1           0        3.785269    3.836955    1.815706
     56          1           0        1.059052   -3.048187    1.345079
     57          1           0        2.656018   -2.719371    1.846758
     58          7           0        1.750086   -2.372333    1.601651
     59          6           0        1.476727   -1.066109    1.616616
     60          6           0        1.980242    1.237187    1.937583
     61          7           0        0.754819    1.674540    1.603662
     62          1           0       -1.054048    0.917867    1.006967
     63          6           0       -0.037128    0.650780    1.291175
     64          7           0        0.234798   -0.658186    1.275577
     65          1           0        5.067839    1.436441    2.875243
     66          6           0        4.079989    1.103636    2.555337
     67          7           0        3.741731   -0.147659    2.361620
     68          6           0        2.412784   -0.077116    1.969600
     69          6           0        3.093417    3.465912    2.435265
     70          7           0        3.062543    1.995154    2.317186
 ---------------------------------------------------------------------

 SCF Done:  E(RwB97XD) =  -2048.74302757     A.U. after   15 cycles

 The electronic state is 1-A.
 Alpha  occ. eigenvalues --  -19.25987 -19.22288 -19.20728 -14.52571 -14.51486
 Alpha  occ. eigenvalues --  -14.49021 -14.48837 -14.48056 -14.47247 -14.46961
 Alpha  occ. eigenvalues --  -14.46659 -14.44473 -14.42854 -14.42788 -14.42296
 Alpha  occ. eigenvalues --  -14.42187 -14.41690 -14.41147 -14.40849 -14.40351
 Alpha  occ. eigenvalues --  -10.45639 -10.41451 -10.40383 -10.38541 -10.38364
 Alpha  occ. eigenvalues --  -10.37996 -10.37057 -10.35948 -10.35600 -10.35423
 Alpha  occ. eigenvalues --  -10.34475 -10.34346 -10.34324 -10.33625 -10.33325
 Alpha  occ. eigenvalues --  -10.33324 -10.33318 -10.31484 -10.31271 -10.31165
 Alpha  occ. eigenvalues --  -10.30887 -10.28790 -10.28264  -1.19558  -1.14146
 Alpha  occ. eigenvalues --   -1.13370  -1.13284  -1.11609  -1.10681  -1.09464
 Alpha  occ. eigenvalues --   -1.08806  -1.07864  -1.05187  -1.03437  -1.02687
 Alpha  occ. eigenvalues --   -1.00617  -1.00219  -0.99861  -0.98653  -0.97191
 Alpha  occ. eigenvalues --   -0.96645  -0.95445  -0.92829  -0.91227  -0.86556
 Alpha  occ. eigenvalues --   -0.85018  -0.84234  -0.84179  -0.83814  -0.82576
 Alpha  occ. eigenvalues --   -0.82540  -0.79046  -0.75841  -0.74766  -0.73933
 Alpha  occ. eigenvalues --   -0.73555  -0.73511  -0.73115  -0.71285  -0.69237
 Alpha  occ. eigenvalues --   -0.67627  -0.66719  -0.66509  -0.65580  -0.64625
 Alpha  occ. eigenvalues --   -0.63915  -0.63139  -0.62831  -0.62828  -0.62042
 Alpha  occ. eigenvalues --   -0.60396  -0.59788  -0.59689  -0.59391  -0.59114
 Alpha  occ. eigenvalues --   -0.58669  -0.58457  -0.56792  -0.56692  -0.56608
 Alpha  occ. eigenvalues --   -0.56120  -0.55566  -0.54851  -0.54555  -0.54284
 Alpha  occ. eigenvalues --   -0.53796  -0.53535  -0.53078  -0.52762  -0.52624
 Alpha  occ. eigenvalues --   -0.52332  -0.51941  -0.51744  -0.50972  -0.50397
 Alpha  occ. eigenvalues --   -0.50291  -0.49605  -0.49341  -0.49018  -0.48834
 Alpha  occ. eigenvalues --   -0.48640  -0.48384  -0.47916  -0.47796  -0.47543
 Alpha  occ. eigenvalues --   -0.47185  -0.45481  -0.45277  -0.44237  -0.43159
 Alpha  occ. eigenvalues --   -0.41398  -0.39612  -0.39527  -0.37550  -0.37404
 Alpha  occ. eigenvalues --   -0.37358  -0.36611  -0.36370  -0.35901  -0.34705
 Alpha  occ. eigenvalues --   -0.33801  -0.33702  -0.33452  -0.33202  -0.32853
 Alpha  occ. eigenvalues --   -0.32740  -0.32475  -0.32163  -0.31939  -0.31172
 Alpha  occ. eigenvalues --   -0.30563  -0.28708  -0.25990  -0.25586
 Alpha virt. eigenvalues --    0.02862   0.05053   0.07692   0.07842   0.08422
 Alpha virt. eigenvalues --    0.09382   0.09495   0.10751   0.11418   0.12083
 Alpha virt. eigenvalues --    0.12705   0.13793   0.14580   0.14713   0.15025

 Mulliken charges:
               1
     1  N   -0.311129
     2  C    0.180844
     3  C    0.033606
     4  N   -0.258496
     5  C    0.133417
     6  H    0.027224
     7  N   -0.288784
     8  C    0.127569
     9  H    0.010862
    10  N   -0.289432
    11  C    0.239728
    12  C    0.123300
    13  N   -0.053004
    14  H    0.108756
    15  H    0.089315
    16  H    0.026078
    17  H    0.034639
    18  H    0.025946
    19  N   -0.310109
    20  C    0.239253
    21  C    0.181190
    22  N   -0.117404
    23  H    0.115635
    24  H    0.116495
    25  N   -0.294924
    26  C    0.229468
    27  N   -0.122451
    28  H    0.116205
    29  C    0.150155
    30  O   -0.319363
    31  C    0.002937
    32  N   -0.221517
    33  C    0.130801
    34  H    0.030422
    35  H    0.030425
    36  H    0.028016
    37  H    0.024609
    38  H    0.061738
    39  H    0.059825
    40  H    0.072155
    41  H    0.031417
    42  C   -0.113380
    43  O   -0.270781
    44  C    0.164693
    45  H    0.137100
    46  N   -0.132344
    47  O   -0.351701
    48  C    0.362445
    49  H    0.048894
    50  C    0.177329
    51  C    0.042466
    52  N   -0.293478
    53  H    0.033705
    54  H    0.043257
    55  H    0.012775
    56  H    0.125824
    57  H    0.114894
    58  N   -0.056857
    59  C    0.104815
    60  C    0.230942
    61  N   -0.259275
    62  H    0.053443
    63  C    0.149159
    64  N   -0.297877
    65  H    0.028341
    66  C    0.131064
    67  N   -0.268217
    68  C    0.023523
    69  C    0.173272
    70  N   -0.309446
 Sum of Mulliken charges =  -0.00000

 Dipole moment (field-independent basis, Debye):
    X=              7.8688    Y=              5.7237    Z=              2.2245  Tot=              9.9813
 Quadrupole moment (field-independent basis, Debye-Ang):
   XX=           -145.4334   YY=           -220.5088   ZZ=           -251.5546
   XY=              4.6863   XZ=             12.8584   YZ=             -7.6758

 Normal termination of Gaussian 16 at Wed Jan 24 06:59:35 2018.
