 Gaussian 16, Revision A.03,
 Gaussian 16:  EM64L-G16RevA.03 25-Dec-2016

 ---------------------------------------
 #p wb97xd/cc-pvdz sp scf=(maxcycles=20)
 ---------------------------------------

 ------------------
 Base pair stacking
 ------------------
 Symbolic Z-matrix:
 Charge =  0 Multiplicity = 1

                         Standard orientation:
 ---------------------------------------------------------------------
 Center     Atomic      Atomic             Coordinates (Angstroms)
 Number     Number       Type             X           Y           Z
 ---------------------------------------------------------------------
      1          7           0       -6.428305   -1.589684    0.595529
      2          6           0       -7.815322   -1.085530    0.600469
      3          6           0       -4.241688   -1.742250    0.776420
      4          7           0       -4.685011   -2.990475    0.363953
      5          6           0       -5.984632   -2.848595    0.271478
      6          1           0       -6.674380   -3.636952   -0.031318
      7          7           0       -2.863713    0.051186    1.445528
      8          6           0       -3.983409    0.775345    1.542690
      9          1           0       -3.843436    1.807678    1.860424
     10          7           0       -5.244147    0.417427    1.307411
     11          6           0       -5.304828   -0.868376    0.923399
     12          6           0       -2.958236   -1.239140    1.056706
     13          7           0       -1.841645   -1.963628    0.959123
     14          1           0       -1.864327   -2.922788    0.675000
     15          1           0       -0.944886   -1.572582    1.166567
     16          1           0       -8.364522   -1.623018    1.240522
     17          1           0       -7.821124   -0.126355    0.881656
     18          1           0       -8.204124   -1.164384   -0.317474
     19          7           0       -2.946184    2.711299   -1.656665
     20          6           0       -1.613826    2.410160   -1.507657
     21          6           0       -3.540010    4.054719   -1.504080
     22          7           0        1.639765    3.417251   -0.828236
     23          1           0        2.544412    2.996523   -0.766229
     24          1           0        1.584545    4.401542   -0.658418
     25          7           0       -0.631207    3.283897   -1.199317
     26          6           0        0.549116    2.694817   -1.125686
     27          7           0        0.753642    1.352868   -1.337467
     28          1           0        1.690954    0.988930   -1.260196
     29          6           0       -0.242596    0.435260   -1.655840
     30          8           0        0.048392   -0.755021   -1.826951
     31          6           0       -1.516195    1.053323   -1.738468
     32          7           0       -2.762187    0.513504   -2.026580
     33          6           0       -3.577347    1.531412   -1.966757
     34          1           0       -4.652519    1.477002   -2.140863
     35          1           0       -4.220474    4.039030   -0.772286
     36          1           0       -2.821574    4.710387   -1.275583
     37          1           0       -3.977887    4.326626   -2.360323
     38          1           0        6.468322   -0.307140   -0.098431
     39          1           0        6.682539   -0.272827   -1.847019
     40          1           0        5.525202    0.814902   -1.079706
     41          1           0        4.485079   -4.519150   -1.311822
     42          6           0        4.237632   -3.457583   -1.321302
     43          8           0        1.910709   -3.814276   -1.613376
     44          6           0        2.872741   -3.058195   -1.480674
     45          1           0        1.717874   -1.372117   -1.589074
     46          7           0        2.669528   -1.692926   -1.478779
     47          8           0        3.344600    0.471748   -1.353593
     48          6           0        3.622378   -0.714590   -1.342844
     49          1           0        6.241872   -2.778029   -1.062418
     50          6           0        5.189362   -2.526655   -1.186432
     51          6           0        5.966937   -0.169876   -1.044915
     52          7           0        4.914457   -1.178789   -1.193659
     53          1           0        3.912840    3.651910    3.393738
     54          1           0        2.738116    3.785851    2.269372
     55          1           0        4.306483    3.814340    1.818270
     56          1           0        1.642447   -3.090483    1.283981
     57          1           0        3.256734   -2.754557    1.721396
     58          7           0        2.336540   -2.412842    1.527273
     59          6           0        2.048856   -1.111140    1.590321
     60          6           0        2.539503    1.189077    1.950912
     61          7           0        1.295047    1.619294    1.685079
     62          1           0       -0.530244    0.855508    1.150725
     63          6           0        0.501690    0.594097    1.381029
     64          7           0        0.787936   -0.710351    1.317337
     65          1           0        5.664226    1.403136    2.752438
     66          6           0        4.666744    1.066237    2.468762
     67          7           0        4.334658   -0.183691    2.256487
     68          6           0        2.988440   -0.119905    1.927326
     69          6           0        3.648097    3.417904    2.458235
     70          7           0        3.629084    1.950566    2.301539
 ---------------------------------------------------------------------

 SCF Done:  E(RwB97XD) =  -2048.74649014     A.U. after   15 cycles

 The electronic state is 1-A.
 Alpha  occ. eigenvalues --  -19.25977 -19.22291 -19.20681 -14.52544 -14.51926
 Alpha  occ. eigenvalues --  -14.48744 -14.48707 -14.47941 -14.47272 -14.46934
 Alpha  occ. eigenvalues --  -14.46795 -14.44978 -14.43464 -14.43407 -14.42106
 Alpha  occ. eigenvalues --  -14.42103 -14.41338 -14.40865 -14.40779 -14.40093
 Alpha  occ. eigenvalues --  -10.45601 -10.41250 -10.40380 -10.39129 -10.38257
 Alpha  occ. eigenvalues --  -10.38011 -10.37498 -10.36496 -10.35322 -10.35182
 Alpha  occ. eigenvalues --  -10.35010 -10.34363 -10.34009 -10.33683 -10.33281
 Alpha  occ. eigenvalues --  -10.33234 -10.33040 -10.31950 -10.31291 -10.30963
 Alpha  occ. eigenvalues --  -10.30838 -10.28436 -10.28118  -1.19547  -1.14603
 Alpha  occ. eigenvalues --   -1.13292  -1.13260  -1.11275  -1.10582  -1.09431
 Alpha  occ. eigenvalues --   -1.08626  -1.08466  -1.04900  -1.04042  -1.02628
 Alpha  occ. eigenvalues --   -1.00425  -1.00343  -0.99843  -0.98581  -0.96901
 Alpha  occ. eigenvalues --   -0.96558  -0.96028  -0.92558  -0.91216  -0.87029
 Alpha  occ. eigenvalues --   -0.85461  -0.84102  -0.83881  -0.83671  -0.82475
 Alpha  occ. eigenvalues --   -0.82263  -0.79018  -0.76365  -0.74641  -0.74108
 Alpha  occ. eigenvalues --   -0.73730  -0.73486  -0.72825  -0.70987  -0.69762
 Alpha  occ. eigenvalues --   -0.67436  -0.66668  -0.66231  -0.66110  -0.64555
 Alpha  occ. eigenvalues --   -0.63817  -0.63608  -0.62748  -0.62625  -0.61794
 Alpha  occ. eigenvalues --   -0.60230  -0.60031  -0.59859  -0.59620  -0.59143
 Alpha  occ. eigenvalues --   -0.58917  -0.58449  -0.56683  -0.56469  -0.56341
 Alpha  occ. eigenvalues --   -0.56073  -0.55357  -0.54897  -0.54606  -0.54461
 Alpha  occ. eigenvalues --   -0.53706  -0.53647  -0.53055  -0.52990  -0.52809
 Alpha  occ. eigenvalues --   -0.52478  -0.52188  -0.51721  -0.50693  -0.50215
 Alpha  occ. eigenvalues --   -0.50149  -0.49556  -0.49350  -0.48957  -0.48840
 Alpha  occ. eigenvalues --   -0.48670  -0.48351  -0.48192  -0.47758  -0.47465
 Alpha  occ. eigenvalues --   -0.46893  -0.45623  -0.44936  -0.44284  -0.43779
 Alpha  occ. eigenvalues --   -0.41082  -0.40135  -0.39539  -0.37376  -0.37293
 Alpha  occ. eigenvalues --   -0.37172  -0.37095  -0.36795  -0.35955  -0.34285
 Alpha  occ. eigenvalues --   -0.34032  -0.33609  -0.33446  -0.33337  -0.33233
 Alpha  occ. eigenvalues --   -0.32704  -0.32417  -0.32148  -0.31840  -0.30833
 Alpha  occ. eigenvalues --   -0.30329  -0.29230  -0.25724  -0.25403
 Alpha virt. eigenvalues --    0.02772   0.04766   0.07358   0.08058   0.08825
 Alpha virt. eigenvalues --    0.09125   0.09592   0.11012   0.11247   0.11580
 Alpha virt. eigenvalues --    0.12708   0.14196   0.14651   0.14657   0.14871

 Mulliken charges:
               1
     1  N   -0.311910
     2  C    0.180790
     3  C    0.043971
     4  N   -0.259071
     5  C    0.133776
     6  H    0.026136
     7  N   -0.291331
     8  C    0.132958
     9  H    0.009361
    10  N   -0.292167
    11  C    0.241699
    12  C    0.120145
    13  N   -0.052428
    14  H    0.110317
    15  H    0.089381
    16  H    0.025438
    17  H    0.033116
    18  H    0.025516
    19  N   -0.311449
    20  C    0.248446
    21  C    0.180590
    22  N   -0.110430
    23  H    0.113391
    24  H    0.115161
    25  N   -0.303463
    26  C    0.231798
    27  N   -0.132860
    28  H    0.114708
    29  C    0.160864
    30  O   -0.319821
    31  C    0.007394
    32  N   -0.225453
    33  C    0.129943
    34  H    0.026535
    35  H    0.030708
    36  H    0.027914
    37  H    0.024124
    38  H    0.062831
    39  H    0.058701
    40  H    0.071538
    41  H    0.030299
    42  C   -0.115294
    43  O   -0.268739
    44  C    0.159780
    45  H    0.135326
    46  N   -0.122589
    47  O   -0.347633
    48  C    0.351123
    49  H    0.049008
    50  C    0.174528
    51  C    0.040917
    52  N   -0.286902
    53  H    0.034805
    54  H    0.039781
    55  H    0.022992
    56  H    0.128138
    57  H    0.114101
    58  N   -0.060657
    59  C    0.089008
    60  C    0.235845
    61  N   -0.265964
    62  H    0.041380
    63  C    0.167047
    64  N   -0.300228
    65  H    0.032289
    66  C    0.134326
    67  N   -0.265612
    68  C    0.023547
    69  C    0.175521
    70  N   -0.313009
 Sum of Mulliken charges =  -0.00000

 Dipole moment (field-independent basis, Debye):
    X=              8.0774    Y=              5.9639    Z=              2.1244  Tot=             10.2628
 Quadrupole moment (field-independent basis, Debye-Ang):
   XX=           -149.8254   YY=           -219.5921   ZZ=           -252.9153
   XY=              2.1625   XZ=              7.2456   YZ=             -6.9208

 Normal termination of Gaussian 16 at Wed Jan 24 05:27:31 2018.
