 Gaussian 16, Revision A.03,
 Gaussian 16:  EM64L-G16RevA.03 25-Dec-2016

 ---------------------------------------
 #p wb97xd/cc-pvdz sp scf=(maxcycles=20)
 ---------------------------------------

 ------------------
 Base pair stacking
 ------------------
 Symbolic Z-matrix:
 Charge =  0 Multiplicity = 1

                         Standard orientation:
 ---------------------------------------------------------------------
 Center     Atomic      Atomic             Coordinates (Angstroms)
 Number     Number       Type             X           Y           Z
 ---------------------------------------------------------------------
      1          7           0        4.600723   -1.741961   -1.704401
      2          6           0        6.003216   -1.285489   -1.755921
      3          6           0        2.403742   -1.792426   -1.614828
      4          7           0        2.821222   -3.115010   -1.649620
      5          6           0        4.128117   -3.031672   -1.702191
      6          1           0        4.802850   -3.887324   -1.741314
      7          7           0        1.060529    0.144623   -1.533829
      8          6           0        2.199658    0.843600   -1.571297
      9          1           0        2.081786    1.926184   -1.552022
     10          7           0        3.456620    0.408101   -1.628730
     11          6           0        3.489395   -0.934648   -1.647982
     12          6           0        1.127152   -1.204522   -1.554558
     13          7           0       -0.008858   -1.904003   -1.517226
     14          1           0       -0.007053   -2.904520   -1.530646
     15          1           0       -0.899950   -1.452040   -1.474604
     16          1           0        6.433272   -1.619428   -2.594794
     17          1           0        6.029999   -0.286359   -1.743697
     18          1           0        6.500704   -1.640285   -0.964318
     19          7           0        4.899495    2.332238    0.836481
     20          6           0        3.546137    2.101489    0.893226
     21          6           0        5.532147    3.614210    0.466347
     22          7           0        0.283681    3.237137    0.534879
     23          1           0       -0.640499    2.869589    0.635081
     24          1           0        0.363441    4.194341    0.255384
     25          7           0        2.574706    2.999892    0.622566
     26          6           0        1.367921    2.481177    0.764748
     27          7           0        1.128610    1.182265    1.142978
     28          1           0        0.172822    0.871631    1.226269
     29          6           0        2.112730    0.240452    1.426439
     30          8           0        1.789765   -0.906498    1.759526
     31          6           0        3.414452    0.783010    1.278033
     32          7           0        4.660078    0.197791    1.459228
     33          6           0        5.508401    1.151903    1.186763
     34          1           0        6.593282    1.048074    1.225786
     35          1           0        6.106406    3.483550   -0.341086
     36          1           0        4.822310    4.287492    0.263648
     37          1           0        6.093935    3.941921    1.225166
     38          1           0       -4.774816   -0.232830    0.834130
     39          1           0       -4.749955   -0.011829    2.582039
     40          1           0       -3.654734    0.920043    1.560540
     41          1           0       -2.853954   -4.419067    2.224225
     42          6           0       -2.556058   -3.379315    2.088517
     43          8           0       -0.231161   -3.849691    2.114926
     44          6           0       -1.164321   -3.051989    2.027343
     45          1           0        0.075394   -1.438806    1.805735
     46          7           0       -0.896939   -1.708998    1.853724
     47          8           0       -1.476445    0.470427    1.586408
     48          6           0       -1.810604   -0.691469    1.738065
     49          1           0       -4.541403   -2.605125    2.018870
     50          6           0       -3.470786   -2.408827    1.978820
     51          6           0       -4.144590   -0.033843    1.688115
     52          7           0       -3.132072   -1.086686    1.806830
     53          1           0       -5.683502    4.289239   -1.383983
     54          1           0       -4.368923    4.061489   -0.444771
     55          1           0       -5.862343    3.984796    0.209364
     56          1           0       -3.566617   -2.817405   -1.666413
     57          1           0       -5.200728   -2.336270   -1.757353
     58          7           0       -4.244614   -2.085033   -1.602591
     59          6           0       -3.890567   -0.828865   -1.323553
     60          6           0       -4.285808    1.483749   -0.926875
     61          7           0       -2.994259    1.792069   -0.723738
     62          1           0       -1.164257    0.869634   -0.695028
     63          6           0       -2.230847    0.707923   -0.845081
     64          7           0       -2.583547   -0.551081   -1.124506
     65          1           0       -7.469046    1.985185   -1.187099
     66          6           0       -6.465269    1.560434   -1.155872
     67          7           0       -6.183608    0.297671   -1.365109
     68          6           0       -4.804972    0.235397   -1.222874
     69          6           0       -5.315809    3.783457   -0.603614
     70          7           0       -5.364098    2.335531   -0.885025
 ---------------------------------------------------------------------

 SCF Done:  E(RwB97XD) =  -2048.73002615     A.U. after   15 cycles

 The electronic state is 1-A.
 Alpha  occ. eigenvalues --  -19.25170 -19.21237 -19.20395 -14.52873 -14.51690
 Alpha  occ. eigenvalues --  -14.49193 -14.48691 -14.48395 -14.47142 -14.46418
 Alpha  occ. eigenvalues --  -14.46371 -14.45771 -14.45097 -14.44935 -14.43121
 Alpha  occ. eigenvalues --  -14.41873 -14.41139 -14.41003 -14.40955 -14.40560
 Alpha  occ. eigenvalues --  -10.44721 -10.40948 -10.40750 -10.39377 -10.38313
 Alpha  occ. eigenvalues --  -10.37940 -10.37682 -10.37206 -10.36575 -10.35808
 Alpha  occ. eigenvalues --  -10.34201 -10.34097 -10.33842 -10.33746 -10.33419
 Alpha  occ. eigenvalues --  -10.33231 -10.33054 -10.32909 -10.30910 -10.30533
 Alpha  occ. eigenvalues --  -10.30395 -10.28539 -10.27892  -1.18886  -1.15658
 Alpha  occ. eigenvalues --   -1.13001  -1.12296  -1.11058  -1.10437  -1.10108
 Alpha  occ. eigenvalues --   -1.08637  -1.08347  -1.05596  -1.05335  -1.01755
 Alpha  occ. eigenvalues --   -1.01418  -1.00845  -0.99462  -0.98368  -0.97640
 Alpha  occ. eigenvalues --   -0.96765  -0.96509  -0.93027  -0.90430  -0.88237
 Alpha  occ. eigenvalues --   -0.86356  -0.84019  -0.83765  -0.82824  -0.82405
 Alpha  occ. eigenvalues --   -0.82069  -0.78226  -0.77660  -0.75534  -0.74463
 Alpha  occ. eigenvalues --   -0.73389  -0.73055  -0.72699  -0.71201  -0.70999
 Alpha  occ. eigenvalues --   -0.67484  -0.67148  -0.66455  -0.65916  -0.64873
 Alpha  occ. eigenvalues --   -0.64134  -0.63456  -0.62912  -0.62471  -0.61570
 Alpha  occ. eigenvalues --   -0.61223  -0.60868  -0.60670  -0.60006  -0.59140
 Alpha  occ. eigenvalues --   -0.58856  -0.58076  -0.57134  -0.56507  -0.56017
 Alpha  occ. eigenvalues --   -0.55770  -0.55734  -0.55611  -0.55011  -0.54172
 Alpha  occ. eigenvalues --   -0.53850  -0.53798  -0.53266  -0.53172  -0.52821
 Alpha  occ. eigenvalues --   -0.51987  -0.51679  -0.51574  -0.50600  -0.50518
 Alpha  occ. eigenvalues --   -0.50000  -0.49808  -0.49798  -0.49018  -0.48986
 Alpha  occ. eigenvalues --   -0.48610  -0.47969  -0.47794  -0.47723  -0.46990
 Alpha  occ. eigenvalues --   -0.46931  -0.45490  -0.45003  -0.44355  -0.43205
 Alpha  occ. eigenvalues --   -0.41368  -0.41282  -0.39042  -0.38252  -0.38184
 Alpha  occ. eigenvalues --   -0.37474  -0.37160  -0.36895  -0.35386  -0.35221
 Alpha  occ. eigenvalues --   -0.35089  -0.34383  -0.33537  -0.33228  -0.32747
 Alpha  occ. eigenvalues --   -0.32341  -0.32332  -0.31725  -0.31121  -0.30686
 Alpha  occ. eigenvalues --   -0.30417  -0.30214  -0.26394  -0.24825
 Alpha virt. eigenvalues --    0.03433   0.03693   0.06249   0.07853   0.09020
 Alpha virt. eigenvalues --    0.09385   0.09791   0.09996   0.10708   0.11887
 Alpha virt. eigenvalues --    0.13306   0.14355   0.14386   0.14586   0.14922

 Mulliken charges:
               1
     1  N   -0.310752
     2  C    0.183683
     3  C    0.063159
     4  N   -0.263454
     5  C    0.144615
     6  H    0.027777
     7  N   -0.280737
     8  C    0.109566
     9  H    0.023778
    10  N   -0.266722
    11  C    0.256595
    12  C    0.081017
    13  N   -0.067517
    14  H    0.109476
    15  H    0.080814
    16  H    0.021149
    17  H    0.028488
    18  H    0.032278
    19  N   -0.304166
    20  C    0.250899
    21  C    0.182341
    22  N   -0.106590
    23  H    0.118868
    24  H    0.115850
    25  N   -0.294001
    26  C    0.193256
    27  N   -0.103020
    28  H    0.114282
    29  C    0.158315
    30  O   -0.319155
    31  C    0.005566
    32  N   -0.229593
    33  C    0.115946
    34  H    0.019651
    35  H    0.025961
    36  H    0.029022
    37  H    0.023699
    38  H    0.070232
    39  H    0.052860
    40  H    0.080197
    41  H    0.027105
    42  C   -0.114933
    43  O   -0.263145
    44  C    0.178063
    45  H    0.133707
    46  N   -0.128165
    47  O   -0.344808
    48  C    0.350399
    49  H    0.042952
    50  C    0.165136
    51  C    0.035617
    52  N   -0.276834
    53  H    0.035069
    54  H    0.037844
    55  H    0.031730
    56  H    0.119398
    57  H    0.120682
    58  N   -0.062787
    59  C    0.074083
    60  C    0.227141
    61  N   -0.272787
    62  H    0.001350
    63  C    0.203766
    64  N   -0.307522
    65  H    0.040408
    66  C    0.135801
    67  N   -0.252429
    68  C    0.016257
    69  C    0.181577
    70  N   -0.308307
 Sum of Mulliken charges =  -0.00000

 Dipole moment (field-independent basis, Debye):
    X=             -8.0475    Y=              6.4587    Z=             -2.3663  Tot=             10.5866
 Quadrupole moment (field-independent basis, Debye-Ang):
   XX=           -162.5073   YY=           -221.0252   ZZ=           -254.3372
   XY=              5.6713   XZ=            -15.8579   YZ=             12.8203

 Normal termination of Gaussian 16 at Wed Jan 24 02:33:58 2018.
