 Gaussian 16, Revision A.03,
 Gaussian 16:  EM64L-G16RevA.03 25-Dec-2016

 ---------------------------------------
 #p wb97xd/cc-pvdz sp scf=(maxcycles=20)
 ---------------------------------------

 ------------------
 Base pair stacking
 ------------------
 Symbolic Z-matrix:
 Charge =  0 Multiplicity = 1

                         Standard orientation:
 ---------------------------------------------------------------------
 Center     Atomic      Atomic             Coordinates (Angstroms)
 Number     Number       Type             X           Y           Z
 ---------------------------------------------------------------------
      1          7           0       -6.720020   -1.539238    0.359454
      2          6           0       -8.109620   -1.044562    0.407532
      3          6           0       -4.534708   -1.703316    0.545995
      4          7           0       -4.967048   -2.896542   -0.014369
      5          6           0       -6.266315   -2.749936   -0.104330
      6          1           0       -6.948636   -3.500218   -0.504884
      7          7           0       -3.173394    0.005085    1.435475
      8          6           0       -4.297844    0.708535    1.603859
      9          1           0       -4.166684    1.697223    2.041503
     10          7           0       -5.554075    0.375605    1.314153
     11          6           0       -5.603912   -0.856769    0.781986
     12          6           0       -3.256991   -1.231362    0.897603
     13          7           0       -2.135654   -1.935105    0.728730
     14          1           0       -2.150269   -2.854585    0.334317
     15          1           0       -1.243228   -1.567445    0.990539
     16          1           0       -8.662868   -1.655285    0.974200
     17          1           0       -8.123453   -0.124830    0.798713
     18          1           0       -8.488090   -1.017171   -0.517672
     19          7           0       -2.577379    2.818588   -1.731107
     20          6           0       -1.252315    2.494762   -1.565605
     21          6           0       -3.141677    4.179984   -1.636968
     22          7           0        2.021353    3.457772   -0.919489
     23          1           0        2.916350    3.020227   -0.837145
     24          1           0        1.987557    4.449318   -0.791412
     25          7           0       -0.251255    3.358897   -1.291378
     26          6           0        0.915616    2.747609   -1.189513
     27          7           0        1.090860    1.393754   -1.344029
     28          1           0        2.019733    1.012863   -1.248715
     29          6           0        0.075229    0.485690   -1.626464
     30          8           0        0.340186   -0.716863   -1.746458
     31          6           0       -1.184231    1.127593   -1.738810
     32          7           0       -2.441245    0.603645   -2.007647
     33          6           0       -3.233828    1.640856   -1.993155
     34          1           0       -4.309592    1.602823   -2.168007
     35          1           0       -3.823817    4.210121   -0.907187
     36          1           0       -2.409398    4.828743   -1.434135
     37          1           0       -3.571680    4.425136   -2.505186
     38          1           0        6.764895   -0.337883   -0.019223
     39          1           0        6.983403   -0.381999   -1.767064
     40          1           0        5.848814    0.762292   -1.049653
     41          1           0        4.691513   -4.552627   -1.060179
     42          6           0        4.467620   -3.487224   -1.115062
     43          8           0        2.133977   -3.804627   -1.398783
     44          6           0        3.112221   -3.064964   -1.295158
     45          1           0        1.995136   -1.359961   -1.477856
     46          7           0        2.939233   -1.696692   -1.351325
     47          8           0        3.661728    0.455950   -1.315343
     48          6           0        3.913191   -0.734696   -1.253847
     49          1           0        6.485852   -2.841611   -0.879044
     50          6           0        5.439409   -2.572595   -1.016659
     51          6           0        6.268599   -0.229621   -0.972134
     52          7           0        5.194382   -1.220514   -1.081414
     53          1           0        3.562903    3.380143    3.867251
     54          1           0        2.399676    3.639896    2.753015
     55          1           0        3.972638    3.727023    2.326085
     56          1           0        1.350575   -3.078512    0.959164
     57          1           0        2.958283   -2.789651    1.451038
     58          7           0        2.038460   -2.431215    1.287747
     59          6           0        1.743328   -1.146917    1.499095
     60          6           0        2.218059    1.097336    2.131311
     61          7           0        0.974310    1.550770    1.903471
     62          1           0       -0.841114    0.847481    1.262992
     63          6           0        0.189629    0.565004    1.472851
     64          7           0        0.483339   -0.721938    1.260537
     65          1           0        5.332810    1.228558    2.987627
     66          6           0        4.340207    0.923195    2.655302
     67          7           0        4.016953   -0.294687    2.294798
     68          6           0        2.674043   -0.198166    1.960130
     69          6           0        3.309478    3.255980    2.907902
     70          7           0        3.299815    1.816921    2.580742
 ---------------------------------------------------------------------

 SCF Done:  E(RwB97XD) =  -2048.74436689     A.U. after   15 cycles

 The electronic state is 1-A.
 Alpha  occ. eigenvalues --  -19.26093 -19.22596 -19.20818 -14.52738 -14.51502
 Alpha  occ. eigenvalues --  -14.48875 -14.48727 -14.48145 -14.47150 -14.47147
 Alpha  occ. eigenvalues --  -14.46444 -14.44571 -14.43012 -14.42906 -14.42260
 Alpha  occ. eigenvalues --  -14.41936 -14.41366 -14.40906 -14.40811 -14.40022
 Alpha  occ. eigenvalues --  -10.45758 -10.41505 -10.40673 -10.38530 -10.38430
 Alpha  occ. eigenvalues --  -10.38258 -10.37114 -10.36041 -10.35432 -10.35252
 Alpha  occ. eigenvalues --  -10.34525 -10.34472 -10.34030 -10.33347 -10.33291
 Alpha  occ. eigenvalues --  -10.33243 -10.32992 -10.31536 -10.31482 -10.30958
 Alpha  occ. eigenvalues --  -10.30942 -10.28438 -10.28287  -1.19691  -1.14175
 Alpha  occ. eigenvalues --   -1.13622  -1.13425  -1.11296  -1.10725  -1.09627
 Alpha  occ. eigenvalues --   -1.08824  -1.07909  -1.04847  -1.03511  -1.02839
 Alpha  occ. eigenvalues --   -1.00270  -1.00114  -0.99948  -0.98732  -0.96884
 Alpha  occ. eigenvalues --   -0.96693  -0.95493  -0.92488  -0.91440  -0.86574
 Alpha  occ. eigenvalues --   -0.85002  -0.84261  -0.83899  -0.83881  -0.82611
 Alpha  occ. eigenvalues --   -0.82254  -0.79241  -0.75874  -0.74800  -0.73940
 Alpha  occ. eigenvalues --   -0.73703  -0.73589  -0.72788  -0.70953  -0.69256
 Alpha  occ. eigenvalues --   -0.67643  -0.66890  -0.66185  -0.65596  -0.64764
 Alpha  occ. eigenvalues --   -0.63989  -0.63078  -0.62888  -0.62550  -0.62006
 Alpha  occ. eigenvalues --   -0.60114  -0.59944  -0.59845  -0.59361  -0.58904
 Alpha  occ. eigenvalues --   -0.58690  -0.58449  -0.56737  -0.56415  -0.56369
 Alpha  occ. eigenvalues --   -0.56227  -0.55244  -0.54745  -0.54640  -0.54282
 Alpha  occ. eigenvalues --   -0.53878  -0.53670  -0.53144  -0.52787  -0.52718
 Alpha  occ. eigenvalues --   -0.52491  -0.51761  -0.51690  -0.50675  -0.50401
 Alpha  occ. eigenvalues --   -0.50107  -0.49776  -0.49220  -0.49148  -0.49110
 Alpha  occ. eigenvalues --   -0.48493  -0.48449  -0.47947  -0.47783  -0.47640
 Alpha  occ. eigenvalues --   -0.46870  -0.45570  -0.44967  -0.44481  -0.43307
 Alpha  occ. eigenvalues --   -0.41049  -0.39700  -0.39649  -0.37494  -0.37423
 Alpha  occ. eigenvalues --   -0.37087  -0.36812  -0.36425  -0.35880  -0.34527
 Alpha  occ. eigenvalues --   -0.33772  -0.33676  -0.33395  -0.33273  -0.32920
 Alpha  occ. eigenvalues --   -0.32869  -0.32547  -0.32396  -0.31970  -0.30844
 Alpha  occ. eigenvalues --   -0.30257  -0.28762  -0.25676  -0.25609
 Alpha virt. eigenvalues --    0.02510   0.05124   0.07554   0.08056   0.08619
 Alpha virt. eigenvalues --    0.09247   0.09493   0.11108   0.11488   0.11921
 Alpha virt. eigenvalues --    0.12659   0.14034   0.14666   0.14730   0.15434

 Mulliken charges:
               1
     1  N   -0.311198
     2  C    0.180848
     3  C    0.037176
     4  N   -0.257900
     5  C    0.132484
     6  H    0.025981
     7  N   -0.292086
     8  C    0.131093
     9  H    0.009898
    10  N   -0.291271
    11  C    0.238366
    12  C    0.122612
    13  N   -0.051227
    14  H    0.110454
    15  H    0.091147
    16  H    0.025583
    17  H    0.034070
    18  H    0.024987
    19  N   -0.311879
    20  C    0.247402
    21  C    0.181078
    22  N   -0.122625
    23  H    0.114106
    24  H    0.116911
    25  N   -0.305348
    26  C    0.242384
    27  N   -0.134340
    28  H    0.114508
    29  C    0.164184
    30  O   -0.320457
    31  C    0.002536
    32  N   -0.223633
    33  C    0.131348
    34  H    0.029242
    35  H    0.030737
    36  H    0.028270
    37  H    0.024651
    38  H    0.063050
    39  H    0.059507
    40  H    0.072885
    41  H    0.031411
    42  C   -0.112290
    43  O   -0.274264
    44  C    0.145347
    45  H    0.136982
    46  N   -0.119588
    47  O   -0.350615
    48  C    0.357623
    49  H    0.050391
    50  C    0.179751
    51  C    0.042250
    52  N   -0.289442
    53  H    0.032277
    54  H    0.043110
    55  H    0.019621
    56  H    0.129241
    57  H    0.111635
    58  N   -0.051691
    59  C    0.094537
    60  C    0.237970
    61  N   -0.265082
    62  H    0.043895
    63  C    0.160721
    64  N   -0.298332
    65  H    0.029733
    66  C    0.132371
    67  N   -0.269289
    68  C    0.019729
    69  C    0.179185
    70  N   -0.312726
 Sum of Mulliken charges =  -0.00000

 Dipole moment (field-independent basis, Debye):
    X=              8.3712    Y=              5.9226    Z=              1.5783  Tot=             10.3752
 Quadrupole moment (field-independent basis, Debye-Ang):
   XX=           -147.4294   YY=           -219.5857   ZZ=           -250.5495
   XY=              2.3442   XZ=             10.5039   YZ=             -4.7727

 Normal termination of Gaussian 16 at Tue Jan 23 21:43:14 2018.
