 Gaussian 16, Revision A.03,
 Gaussian 16:  EM64L-G16RevA.03 25-Dec-2016

 ---------------------------------------
 #p wb97xd/cc-pvdz sp scf=(maxcycles=20)
 ---------------------------------------

 ------------------
 Base pair stacking
 ------------------
 Symbolic Z-matrix:
 Charge =  0 Multiplicity = 1

                         Standard orientation:
 ---------------------------------------------------------------------
 Center     Atomic      Atomic             Coordinates (Angstroms)
 Number     Number       Type             X           Y           Z
 ---------------------------------------------------------------------
      1          7           0       -7.226895   -1.427323    0.029708
      2          6           0       -8.616156   -0.929718    0.048939
      3          6           0       -5.048720   -1.603453    0.278372
      4          7           0       -5.466487   -2.779405   -0.327724
      5          6           0       -6.762040   -2.626225   -0.453278
      6          1           0       -7.433524   -3.362993   -0.895092
      7          7           0       -3.711300    0.075419    1.255939
      8          6           0       -4.838727    0.777553    1.409245
      9          1           0       -4.718716    1.753386    1.877873
     10          7           0       -6.086267    0.456749    1.072179
     11          6           0       -6.122661   -0.760322    0.504867
     12          6           0       -3.781271   -1.145458    0.681794
     13          7           0       -2.656947   -1.847858    0.527882
     14          1           0       -2.661626   -2.756076    0.107946
     15          1           0       -1.772101   -1.490406    0.826928
     16          1           0       -9.187946   -1.554057    0.581335
     17          1           0       -8.639811   -0.021070    0.464790
     18          1           0       -8.966016   -0.875636   -0.886292
     19          7           0       -1.966922    2.803704   -1.816800
     20          6           0       -0.653068    2.463916   -1.601372
     21          6           0       -2.505955    4.178484   -1.805986
     22          7           0        2.622396    3.396995   -0.921356
     23          1           0        3.506151    2.947499   -0.794179
     24          1           0        2.605343    4.394242   -0.844416
     25          7           0        0.358072    3.321961   -1.345678
     26          6           0        1.509605    2.694869   -1.183305
     27          7           0        1.661416    1.331850   -1.264716
     28          1           0        2.579843    0.938948   -1.126595
     29          6           0        0.635022    0.429786   -1.526764
     30          8           0        0.878690   -0.782082   -1.579065
     31          6           0       -0.608177    1.088652   -1.703516
     32          7           0       -1.868464    0.575371   -1.977551
     33          6           0       -2.640218    1.626672   -2.035699
     34          1           0       -3.711904    1.599969   -2.235831
     35          1           0       -3.205070    4.258599   -1.096315
     36          1           0       -1.766009    4.822872   -1.617543
     37          1           0       -2.909516    4.387074   -2.696186
     38          1           0        7.265368   -0.436186    0.290314
     39          1           0        7.525776   -0.573474   -1.446925
     40          1           0        6.397093    0.627004   -0.817428
     41          1           0        5.134097   -4.658869   -0.589027
     42          6           0        4.933012   -3.593633   -0.703357
     43          8           0        2.601153   -3.881221   -1.030184
     44          6           0        3.591187   -3.155736   -0.939107
     45          1           0        2.513317   -1.441594   -1.236149
     46          7           0        3.447085   -1.789105   -1.068705
     47          8           0        4.211484    0.348636   -1.123065
     48          6           0        4.437454   -0.841846   -0.995107
     49          1           0        6.957390   -2.974828   -0.448792
     50          6           0        5.920244   -2.693587   -0.626493
     51          6           0        6.794886   -0.367374   -0.679217
     52          7           0        5.704029   -1.342204   -0.765696
     53          1           0        2.955217    3.360633    3.984908
     54          1           0        1.827301    3.654711    2.843235
     55          1           0        3.412805    3.748553    2.467162
     56          1           0        0.817880   -3.008313    0.833110
     57          1           0        2.410435   -2.738254    1.381698
     58          7           0        1.496890   -2.372516    1.200332
     59          6           0        1.198442   -1.093598    1.437989
     60          6           0        1.658843    1.130845    2.146217
     61          7           0        0.423729    1.594360    1.893081
     62          1           0       -1.372858    0.914786    1.178197
     63          6           0       -0.349702    0.623351    1.411583
     64          7           0       -0.052636   -0.658185    1.172851
     65          1           0        4.746184    1.228469    3.100664
     66          6           0        3.763520    0.935550    2.729821
     67          7           0        3.448606   -0.270885    2.326079
     68          6           0        2.116815   -0.160890    1.953307
     69          6           0        2.731019    3.263766    3.015186
     70          7           0        2.728004    1.834319    2.648232
 ---------------------------------------------------------------------

 SCF Done:  E(RwB97XD) =  -2048.74503858     A.U. after   15 cycles

 The electronic state is 1-A.
 Alpha  occ. eigenvalues --  -19.26170 -19.22750 -19.21041 -14.52813 -14.50870
 Alpha  occ. eigenvalues --  -14.49010 -14.48958 -14.48355 -14.47486 -14.47428
 Alpha  occ. eigenvalues --  -14.45594 -14.43932 -14.42472 -14.42281 -14.42096
 Alpha  occ. eigenvalues --  -14.42061 -14.41640 -14.41029 -14.41000 -14.40218
 Alpha  occ. eigenvalues --  -10.45859 -10.41735 -10.40772 -10.38666 -10.38221
 Alpha  occ. eigenvalues --  -10.37730 -10.36458 -10.35631 -10.35461 -10.35358
 Alpha  occ. eigenvalues --  -10.34666 -10.34289 -10.33827 -10.33540 -10.33494
 Alpha  occ. eigenvalues --  -10.33178 -10.32694 -10.31492 -10.31101 -10.31021
 Alpha  occ. eigenvalues --  -10.30795 -10.28709 -10.28461  -1.19764  -1.13764
 Alpha  occ. eigenvalues --   -1.13708  -1.13467  -1.11544  -1.10905  -1.09712
 Alpha  occ. eigenvalues --   -1.09098  -1.07090  -1.05062  -1.03035  -1.02641
 Alpha  occ. eigenvalues --   -1.00462  -1.00390  -0.99266  -0.98923  -0.97101
 Alpha  occ. eigenvalues --   -0.96843  -0.94712  -0.92685  -0.91457  -0.85912
 Alpha  occ. eigenvalues --   -0.84435  -0.84345  -0.84096  -0.84048  -0.82740
 Alpha  occ. eigenvalues --   -0.82460  -0.79298  -0.75152  -0.74966  -0.74161
 Alpha  occ. eigenvalues --   -0.73824  -0.73004  -0.72859  -0.71166  -0.68512
 Alpha  occ. eigenvalues --   -0.67859  -0.66977  -0.66386  -0.64908  -0.64835
 Alpha  occ. eigenvalues --   -0.64117  -0.63052  -0.62812  -0.62263  -0.62223
 Alpha  occ. eigenvalues --   -0.60231  -0.59927  -0.59904  -0.58993  -0.58678
 Alpha  occ. eigenvalues --   -0.58405  -0.57822  -0.56845  -0.56559  -0.56531
 Alpha  occ. eigenvalues --   -0.56337  -0.55382  -0.54823  -0.54519  -0.54025
 Alpha  occ. eigenvalues --   -0.53750  -0.53644  -0.53274  -0.52840  -0.52301
 Alpha  occ. eigenvalues --   -0.52018  -0.51760  -0.51108  -0.50883  -0.50559
 Alpha  occ. eigenvalues --   -0.50278  -0.49874  -0.49330  -0.49176  -0.49016
 Alpha  occ. eigenvalues --   -0.48591  -0.48339  -0.48000  -0.47815  -0.47480
 Alpha  occ. eigenvalues --   -0.47060  -0.45235  -0.45107  -0.44450  -0.42916
 Alpha  occ. eigenvalues --   -0.41275  -0.39783  -0.39034  -0.37697  -0.37608
 Alpha  occ. eigenvalues --   -0.37297  -0.36472  -0.35853  -0.35748  -0.34965
 Alpha  occ. eigenvalues --   -0.33869  -0.33671  -0.33639  -0.33152  -0.32882
 Alpha  occ. eigenvalues --   -0.32531  -0.32365  -0.32212  -0.32039  -0.31113
 Alpha  occ. eigenvalues --   -0.30410  -0.27991  -0.25897  -0.25783
 Alpha virt. eigenvalues --    0.02563   0.05812   0.07879   0.08021   0.08612
 Alpha virt. eigenvalues --    0.09271   0.09381   0.10883   0.11645   0.12395
 Alpha virt. eigenvalues --    0.12789   0.13913   0.14362   0.14775   0.16071

 Mulliken charges:
               1
     1  N   -0.310619
     2  C    0.180919
     3  C    0.028265
     4  N   -0.257784
     5  C    0.132377
     6  H    0.026767
     7  N   -0.289878
     8  C    0.128977
     9  H    0.011754
    10  N   -0.289056
    11  C    0.238511
    12  C    0.118531
    13  N   -0.048669
    14  H    0.108513
    15  H    0.090132
    16  H    0.026061
    17  H    0.035277
    18  H    0.025292
    19  N   -0.310574
    20  C    0.252586
    21  C    0.181780
    22  N   -0.125039
    23  H    0.115033
    24  H    0.118122
    25  N   -0.302889
    26  C    0.238091
    27  N   -0.131678
    28  H    0.118410
    29  C    0.171701
    30  O   -0.324346
    31  C   -0.013376
    32  N   -0.220475
    33  C    0.132475
    34  H    0.031551
    35  H    0.031207
    36  H    0.028247
    37  H    0.025060
    38  H    0.061617
    39  H    0.060973
    40  H    0.073785
    41  H    0.032914
    42  C   -0.104818
    43  O   -0.277894
    44  C    0.150642
    45  H    0.137243
    46  N   -0.131118
    47  O   -0.353222
    48  C    0.368784
    49  H    0.050124
    50  C    0.179468
    51  C    0.042044
    52  N   -0.296467
    53  H    0.029742
    54  H    0.043529
    55  H    0.014484
    56  H    0.125275
    57  H    0.115074
    58  N   -0.039635
    59  C    0.097322
    60  C    0.242726
    61  N   -0.267722
    62  H    0.036583
    63  C    0.158831
    64  N   -0.299310
    65  H    0.025420
    66  C    0.129158
    67  N   -0.268675
    68  C    0.020614
    69  C    0.182044
    70  N   -0.310791
 Sum of Mulliken charges =  -0.00000

 Dipole moment (field-independent basis, Debye):
    X=              8.4368    Y=              5.7117    Z=              1.1888  Tot=             10.2575
 Quadrupole moment (field-independent basis, Debye-Ang):
   XX=           -142.8050   YY=           -220.1226   ZZ=           -248.2232
   XY=              4.3968   XZ=             15.1274   YZ=             -4.4715

 Normal termination of Gaussian 16 at Wed Jan 24 03:31:33 2018.
