 Gaussian 16, Revision A.03,
 Gaussian 16:  EM64L-G16RevA.03 25-Dec-2016

 ---------------------------------------
 #p wb97xd/cc-pvdz sp scf=(maxcycles=20)
 ---------------------------------------

 ------------------
 Base pair stacking
 ------------------
 Symbolic Z-matrix:
 Charge =  0 Multiplicity = 1

                         Standard orientation:
 ---------------------------------------------------------------------
 Center     Atomic      Atomic             Coordinates (Angstroms)
 Number     Number       Type             X           Y           Z
 ---------------------------------------------------------------------
      1          7           0        4.577627   -1.888418   -1.760967
      2          6           0        5.971925   -1.450526   -1.966365
      3          6           0        2.388175   -1.919788   -1.554427
      4          7           0        2.814826   -3.225902   -1.362711
      5          6           0        4.116813   -3.154729   -1.494810
      6          1           0        4.796175   -4.003096   -1.407208
      7          7           0        1.033901   -0.000752   -1.769344
      8          6           0        2.163766    0.678173   -1.993080
      9          1           0        2.037664    1.745416   -2.170167
     10          7           0        3.420110    0.238758   -2.030732
     11          6           0        3.463473   -1.084005   -1.800884
     12          6           0        1.111057   -1.330098   -1.541435
     13          7           0       -0.015686   -2.009553   -1.317889
     14          1           0       -0.005930   -2.994987   -1.144582
     15          1           0       -0.907492   -1.556970   -1.316028
     16          1           0        6.363243   -1.935476   -2.748594
     17          1           0        5.990662   -0.466702   -2.141999
     18          1           0        6.510618   -1.651671   -1.148231
     19          7           0        4.911922    2.417940    0.846961
     20          6           0        3.559422    2.199731    0.952676
     21          6           0        5.544878    3.710767    0.517340
     22          7           0        0.300053    3.389713    0.803735
     23          1           0       -0.623665    3.027734    0.926031
     24          1           0        0.380327    4.359620    0.572303
     25          7           0        2.589250    3.122296    0.774621
     26          6           0        1.383038    2.610305    0.943566
     27          7           0        1.143126    1.295687    1.262514
     28          1           0        0.187860    0.991802    1.372421
     29          6           0        2.125955    0.328942    1.450461
     30          8           0        1.802538   -0.830556    1.736270
     31          6           0        3.427046    0.864017    1.272265
     32          7           0        4.671397    0.255884    1.365321
     33          6           0        5.519671    1.213670    1.105873
     34          1           0        6.603691    1.095674    1.090044
     35          1           0        6.080630    3.617312   -0.321128
     36          1           0        4.835966    4.401939    0.383222
     37          1           0        6.144455    3.990791    1.266274
     38          1           0       -4.787010   -0.034128    1.146862
     39          1           0       -4.681022    0.092147    2.901130
     40          1           0       -3.619913    1.065273    1.882097
     41          1           0       -2.863392   -4.310508    2.223346
     42          6           0       -2.557658   -3.268380    2.129859
     43          8           0       -0.240560   -3.765660    2.025661
     44          6           0       -1.165695   -2.953938    2.023124
     45          1           0        0.084820   -1.345240    1.831778
     46          7           0       -0.887996   -1.606650    1.909364
     47          8           0       -1.448999    0.590400    1.785113
     48          6           0       -1.791919   -0.574136    1.889659
     49          1           0       -4.533357   -2.469239    2.191703
     50          6           0       -3.463014   -2.283154    2.113639
     51          6           0       -4.116576    0.111479    1.980754
     52          7           0       -3.114275   -0.957562    1.997156
     53          1           0       -5.730160    4.103565   -2.059793
     54          1           0       -4.369250    4.054239   -1.161131
     55          1           0       -5.828115    4.102009   -0.430727
     56          1           0       -3.568490   -2.932336   -1.117047
     57          1           0       -5.209184   -2.475524   -1.214739
     58          7           0       -4.248841   -2.200454   -1.157274
     59          6           0       -3.892379   -0.914521   -1.135309
     60          6           0       -4.287626    1.431750   -1.157656
     61          7           0       -2.990382    1.771705   -1.080048
     62          1           0       -1.153295    0.869598   -0.970871
     63          6           0       -2.224520    0.683444   -1.034912
     64          7           0       -2.579626   -0.605357   -1.056791
     65          1           0       -7.483994    1.877968   -1.348207
     66          6           0       -6.476283    1.465828   -1.288270
     67          7           0       -6.194322    0.186013   -1.272122
     68          6           0       -4.809897    0.150442   -1.189508
     69          6           0       -5.320338    3.752079   -1.218063
     70          7           0       -5.369879    2.277109   -1.221806
 ---------------------------------------------------------------------

 SCF Done:  E(RwB97XD) =  -2048.74974293     A.U. after   15 cycles

 The electronic state is 1-A.
 Alpha  occ. eigenvalues --  -19.25307 -19.21436 -19.20483 -14.52709 -14.51857
 Alpha  occ. eigenvalues --  -14.48977 -14.48864 -14.48170 -14.47239 -14.46668
 Alpha  occ. eigenvalues --  -14.46496 -14.45659 -14.44949 -14.44806 -14.42808
 Alpha  occ. eigenvalues --  -14.41980 -14.41103 -14.40850 -14.40845 -14.40446
 Alpha  occ. eigenvalues --  -10.44891 -10.41123 -10.40562 -10.39563 -10.38228
 Alpha  occ. eigenvalues --  -10.38110 -10.37575 -10.37442 -10.36338 -10.35584
 Alpha  occ. eigenvalues --  -10.34340 -10.34304 -10.34058 -10.33588 -10.33533
 Alpha  occ. eigenvalues --  -10.33042 -10.33030 -10.32981 -10.31018 -10.30697
 Alpha  occ. eigenvalues --  -10.30271 -10.28301 -10.28100  -1.18888  -1.15497
 Alpha  occ. eigenvalues --   -1.13093  -1.12457  -1.10831  -1.10595  -1.09904
 Alpha  occ. eigenvalues --   -1.08761  -1.08441  -1.05386  -1.05093  -1.01881
 Alpha  occ. eigenvalues --   -1.01276  -1.00562  -0.99591  -0.98483  -0.97424
 Alpha  occ. eigenvalues --   -0.96645  -0.96520  -0.92791  -0.90605  -0.88016
 Alpha  occ. eigenvalues --   -0.86182  -0.84147  -0.83544  -0.83003  -0.82536
 Alpha  occ. eigenvalues --   -0.81878  -0.78378  -0.77478  -0.75296  -0.74597
 Alpha  occ. eigenvalues --   -0.73510  -0.72818  -0.72784  -0.70957  -0.70802
 Alpha  occ. eigenvalues --   -0.67316  -0.67258  -0.66191  -0.66038  -0.64670
 Alpha  occ. eigenvalues --   -0.64264  -0.63503  -0.62654  -0.62524  -0.61693
 Alpha  occ. eigenvalues --   -0.60984  -0.60649  -0.60406  -0.59728  -0.59163
 Alpha  occ. eigenvalues --   -0.59001  -0.58213  -0.56767  -0.56453  -0.55714
 Alpha  occ. eigenvalues --   -0.55666  -0.55629  -0.55465  -0.54783  -0.54077
 Alpha  occ. eigenvalues --   -0.53916  -0.53574  -0.53356  -0.53135  -0.52904
 Alpha  occ. eigenvalues --   -0.52290  -0.51902  -0.51383  -0.50382  -0.50325
 Alpha  occ. eigenvalues --   -0.50078  -0.49880  -0.49643  -0.49062  -0.48766
 Alpha  occ. eigenvalues --   -0.48720  -0.48117  -0.47918  -0.47772  -0.47091
 Alpha  occ. eigenvalues --   -0.46700  -0.45658  -0.45389  -0.44540  -0.43363
 Alpha  occ. eigenvalues --   -0.41168  -0.41075  -0.39008  -0.38109  -0.38021
 Alpha  occ. eigenvalues --   -0.37326  -0.37238  -0.36861  -0.35379  -0.35259
 Alpha  occ. eigenvalues --   -0.34873  -0.34017  -0.33331  -0.33254  -0.32836
 Alpha  occ. eigenvalues --   -0.32482  -0.32467  -0.31833  -0.31469  -0.30561
 Alpha  occ. eigenvalues --   -0.30431  -0.30328  -0.26024  -0.25228
 Alpha virt. eigenvalues --    0.03339   0.03803   0.06391   0.08085   0.09014
 Alpha virt. eigenvalues --    0.09319   0.09812   0.10219   0.10978   0.11695
 Alpha virt. eigenvalues --    0.13362   0.14433   0.14543   0.14697   0.14799

 Mulliken charges:
               1
     1  N   -0.310277
     2  C    0.183002
     3  C    0.059469
     4  N   -0.259919
     5  C    0.145759
     6  H    0.027411
     7  N   -0.291030
     8  C    0.124771
     9  H    0.013532
    10  N   -0.277194
    11  C    0.255161
    12  C    0.086975
    13  N   -0.067406
    14  H    0.113286
    15  H    0.081758
    16  H    0.021126
    17  H    0.029373
    18  H    0.031053
    19  N   -0.309038
    20  C    0.257603
    21  C    0.181660
    22  N   -0.120840
    23  H    0.120487
    24  H    0.116977
    25  N   -0.309167
    26  C    0.237551
    27  N   -0.131627
    28  H    0.115530
    29  C    0.178347
    30  O   -0.320847
    31  C   -0.006010
    32  N   -0.231709
    33  C    0.122099
    34  H    0.020677
    35  H    0.027360
    36  H    0.029615
    37  H    0.024223
    38  H    0.068053
    39  H    0.057418
    40  H    0.076289
    41  H    0.026088
    42  C   -0.118449
    43  O   -0.262873
    44  C    0.173429
    45  H    0.133546
    46  N   -0.126510
    47  O   -0.346942
    48  C    0.352548
    49  H    0.041884
    50  C    0.166258
    51  C    0.033743
    52  N   -0.278091
    53  H    0.034689
    54  H    0.039297
    55  H    0.030568
    56  H    0.118993
    57  H    0.119005
    58  N   -0.062498
    59  C    0.083313
    60  C    0.244376
    61  N   -0.272727
    62  H    0.023221
    63  C    0.183334
    64  N   -0.312257
    65  H    0.040147
    66  C    0.137731
    67  N   -0.256985
    68  C    0.012063
    69  C    0.181219
    70  N   -0.309622
 Sum of Mulliken charges =  -0.00000

 Dipole moment (field-independent basis, Debye):
    X=             -8.0862    Y=              6.6840    Z=             -1.4101  Tot=             10.5854
 Quadrupole moment (field-independent basis, Debye-Ang):
   XX=           -162.3720   YY=           -218.9120   ZZ=           -252.8138
   XY=              4.5775   XZ=            -15.1494   YZ=              9.1671

 Normal termination of Gaussian 16 at Wed Jan 24 06:48:12 2018.
