 Gaussian 16, Revision A.03,
 Gaussian 16:  EM64L-G16RevA.03 25-Dec-2016

 ---------------------------------------
 #p wb97xd/cc-pvdz sp scf=(maxcycles=20)
 ---------------------------------------

 ------------------
 Base pair stacking
 ------------------
 Symbolic Z-matrix:
 Charge =  0 Multiplicity = 1

                         Standard orientation:
 ---------------------------------------------------------------------
 Center     Atomic      Atomic             Coordinates (Angstroms)
 Number     Number       Type             X           Y           Z
 ---------------------------------------------------------------------
      1          7           0       -5.891586   -1.865318    0.880311
      2          6           0       -7.285402   -1.448187    1.127872
      3          6           0       -3.694268   -1.949535    0.835360
      4          7           0       -4.139728   -3.074545    0.156652
      5          6           0       -5.445703   -2.978784    0.210897
      6          1           0       -6.138791   -3.699064   -0.224707
      7          7           0       -2.309619   -0.315494    1.823093
      8          6           0       -3.434819    0.304425    2.193488
      9          1           0       -3.294191    1.229474    2.750961
     10          7           0       -4.701697   -0.045119    1.979648
     11          6           0       -4.762633   -1.194580    1.287221
     12          6           0       -2.404558   -1.469811    1.127654
     13          7           0       -1.282491   -2.090113    0.757027
     14          1           0       -1.305254   -2.947023    0.240888
     15          1           0       -0.381355   -1.719624    0.982517
     16          1           0       -7.758294   -2.155857    1.653004
     17          1           0       -7.291264   -0.591928    1.643536
     18          1           0       -7.755063   -1.313117    0.255424
     19          7           0       -3.535304    2.929632   -1.349084
     20          6           0       -2.192166    2.639973   -1.338098
     21          6           0       -4.122711    4.264312   -1.116034
     22          7           0        1.103960    3.669840   -0.968438
     23          1           0        2.013921    3.257551   -1.003538
     24          1           0        1.057329    4.650732   -0.777665
     25          7           0       -1.191407    3.518881   -1.114383
     26          6           0       -0.004520    2.940924   -1.168076
     27          7           0        0.189624    1.604631   -1.421352
     28          1           0        1.133101    1.249222   -1.443552
     29          6           0       -0.825309    0.681882   -1.654421
     30          8           0       -0.542409   -0.502514   -1.873294
     31          6           0       -2.106146    1.287998   -1.599939
     32          7           0       -3.369857    0.739912   -1.771842
     33          6           0       -4.183866    1.748301   -1.614518
     34          1           0       -5.270514    1.685512   -1.681896
     35          1           0       -4.726872    4.230155   -0.320661
     36          1           0       -3.390855    4.923705   -0.949156
     37          1           0       -4.645902    4.545040   -1.919950
     38          1           0        6.013422   -0.015492   -0.783472
     39          1           0        6.052414    0.048382   -2.543879
     40          1           0        4.967667    1.111976   -1.647520
     41          1           0        3.956139   -4.228250   -1.863667
     42          6           0        3.699742   -3.169277   -1.830932
     43          8           0        1.358500   -3.545346   -1.896428
     44          6           0        2.322339   -2.781541   -1.847369
     45          1           0        1.147765   -1.105985   -1.812595
     46          7           0        2.108426   -1.418645   -1.802656
     47          8           0        2.773706    0.750656   -1.709224
     48          6           0        3.061510   -0.432767   -1.745782
     49          1           0        5.713789   -2.473204   -1.761071
     50          6           0        4.652010   -2.230793   -1.775787
     51          6           0        5.419230    0.131382   -1.673095
     52          7           0        4.366018   -0.885888   -1.733336
     53          1           0        4.517592    3.012602    4.058116
     54          1           0        3.240793    3.366147    3.105798
     55          1           0        4.759404    3.584989    2.549036
     56          1           0        2.246050   -3.087777    0.495661
     57          1           0        3.884124   -2.792687    0.869488
     58          7           0        2.940976   -2.459350    0.845377
     59          6           0        2.625083   -1.231199    1.261345
     60          6           0        3.084251    0.926109    2.154066
     61          7           0        1.809322    1.346891    2.110149
     62          1           0       -0.036103    0.652072    1.551367
     63          6           0        1.019418    0.392822    1.621570
     64          7           0        1.333903   -0.837890    1.204398
     65          1           0        6.262695    1.087015    2.723085
     66          6           0        5.252789    0.783028    2.446250
     67          7           0        4.936604   -0.388399    1.950820
     68          6           0        3.564495   -0.310973    1.760964
     69          6           0        4.173993    3.008265    3.119005
     70          7           0        4.180472    1.628291    2.595927
 ---------------------------------------------------------------------

 SCF Done:  E(RwB97XD) =  -2048.74171013     A.U. after   15 cycles

 The electronic state is 1-A.
 Alpha  occ. eigenvalues --  -19.26155 -19.22881 -19.20793 -14.52771 -14.52041
 Alpha  occ. eigenvalues --  -14.48899 -14.48171 -14.48084 -14.47499 -14.47148
 Alpha  occ. eigenvalues --  -14.46916 -14.45188 -14.43770 -14.43766 -14.42206
 Alpha  occ. eigenvalues --  -14.41553 -14.40971 -14.40744 -14.40355 -14.39684
 Alpha  occ. eigenvalues --  -10.45775 -10.41438 -10.40804 -10.39383 -10.38396
 Alpha  occ. eigenvalues --  -10.38149 -10.37667 -10.36716 -10.35225 -10.35137
 Alpha  occ. eigenvalues --  -10.34799 -10.34478 -10.33558 -10.33449 -10.33421
 Alpha  occ. eigenvalues --  -10.32730 -10.32559 -10.32241 -10.31533 -10.31007
 Alpha  occ. eigenvalues --  -10.30574 -10.28242 -10.27870  -1.19728  -1.14775
 Alpha  occ. eigenvalues --   -1.13834  -1.13381  -1.10726  -1.10716  -1.09660
 Alpha  occ. eigenvalues --   -1.08789  -1.08755  -1.04433  -1.04349  -1.02866
 Alpha  occ. eigenvalues --   -1.00597  -0.99971  -0.99807  -0.98716  -0.96717
 Alpha  occ. eigenvalues --   -0.96462  -0.96222  -0.92076  -0.91480  -0.87188
 Alpha  occ. eigenvalues --   -0.85512  -0.84249  -0.83774  -0.83375  -0.82625
 Alpha  occ. eigenvalues --   -0.81778  -0.79278  -0.76588  -0.74786  -0.74333
 Alpha  occ. eigenvalues --   -0.73875  -0.73706  -0.72316  -0.70478  -0.69993
 Alpha  occ. eigenvalues --   -0.67583  -0.66866  -0.66374  -0.65706  -0.64785
 Alpha  occ. eigenvalues --   -0.64031  -0.63802  -0.62860  -0.62120  -0.61936
 Alpha  occ. eigenvalues --   -0.60376  -0.60069  -0.59892  -0.59764  -0.59151
 Alpha  occ. eigenvalues --   -0.58983  -0.58588  -0.56724  -0.56248  -0.56032
 Alpha  occ. eigenvalues --   -0.55896  -0.55001  -0.54779  -0.54709  -0.54377
 Alpha  occ. eigenvalues --   -0.53877  -0.53658  -0.53309  -0.53167  -0.53105
 Alpha  occ. eigenvalues --   -0.52624  -0.52364  -0.51279  -0.50425  -0.50200
 Alpha  occ. eigenvalues --   -0.49800  -0.49725  -0.49389  -0.49229  -0.49013
 Alpha  occ. eigenvalues --   -0.48539  -0.48432  -0.48185  -0.47814  -0.47610
 Alpha  occ. eigenvalues --   -0.46409  -0.45811  -0.44651  -0.44412  -0.44089
 Alpha  occ. eigenvalues --   -0.40519  -0.40296  -0.39702  -0.37451  -0.37422
 Alpha  occ. eigenvalues --   -0.37331  -0.37098  -0.36575  -0.36299  -0.34499
 Alpha  occ. eigenvalues --   -0.34167  -0.33956  -0.33781  -0.33017  -0.32910
 Alpha  occ. eigenvalues --   -0.32733  -0.32617  -0.32447  -0.32011  -0.30348
 Alpha  occ. eigenvalues --   -0.29890  -0.29382  -0.25713  -0.24974
 Alpha virt. eigenvalues --    0.02407   0.04425   0.07394   0.08245   0.08523
 Alpha virt. eigenvalues --    0.09151   0.09630   0.10938   0.11624   0.12130
 Alpha virt. eigenvalues --    0.12969   0.14406   0.14886   0.14914   0.15293

 Mulliken charges:
               1
     1  N   -0.312742
     2  C    0.180956
     3  C    0.052554
     4  N   -0.257590
     5  C    0.134555
     6  H    0.024295
     7  N   -0.297506
     8  C    0.135493
     9  H    0.008484
    10  N   -0.293053
    11  C    0.245764
    12  C    0.111081
    13  N   -0.050230
    14  H    0.114228
    15  H    0.086365
    16  H    0.024284
    17  H    0.032233
    18  H    0.024084
    19  N   -0.311863
    20  C    0.251021
    21  C    0.180613
    22  N   -0.121144
    23  H    0.114320
    24  H    0.117397
    25  N   -0.310828
    26  C    0.246450
    27  N   -0.149668
    28  H    0.120433
    29  C    0.191055
    30  O   -0.322430
    31  C   -0.010278
    32  N   -0.225820
    33  C    0.133153
    34  H    0.024100
    35  H    0.030191
    36  H    0.028783
    37  H    0.024521
    38  H    0.063328
    39  H    0.058845
    40  H    0.072305
    41  H    0.029270
    42  C   -0.115626
    43  O   -0.265965
    44  C    0.136431
    45  H    0.133915
    46  N   -0.105545
    47  O   -0.342243
    48  C    0.335933
    49  H    0.049815
    50  C    0.167600
    51  C    0.039560
    52  N   -0.277186
    53  H    0.033506
    54  H    0.042896
    55  H    0.025713
    56  H    0.128581
    57  H    0.115455
    58  N   -0.053255
    59  C    0.077460
    60  C    0.249566
    61  N   -0.272883
    62  H    0.038975
    63  C    0.166662
    64  N   -0.306195
    65  H    0.034904
    66  C    0.137840
    67  N   -0.269556
    68  C    0.028800
    69  C    0.179633
    70  N   -0.311797
 Sum of Mulliken charges =  -0.00000

 Dipole moment (field-independent basis, Debye):
    X=              8.5015    Y=              6.4287    Z=              1.1695  Tot=             10.7225
 Quadrupole moment (field-independent basis, Debye-Ang):
   XX=           -154.0023   YY=           -218.4620   ZZ=           -250.6966
   XY=             -0.5316   XZ=              1.2593   YZ=             -1.3624

 Normal termination of Gaussian 16 at Tue Jan 23 23:49:10 2018.
