 Gaussian 16, Revision A.03,
 Gaussian 16:  EM64L-G16RevA.03 25-Dec-2016

 ---------------------------------------
 #p wb97xd/cc-pvdz sp scf=(maxcycles=20)
 ---------------------------------------

 ------------------
 Base pair stacking
 ------------------
 Symbolic Z-matrix:
 Charge =  0 Multiplicity = 1

                         Standard orientation:
 ---------------------------------------------------------------------
 Center     Atomic      Atomic             Coordinates (Angstroms)
 Number     Number       Type             X           Y           Z
 ---------------------------------------------------------------------
      1          7           0        5.518519   -1.719942   -1.238023
      2          6           0        6.913017   -1.237078   -1.253150
      3          6           0        3.321908   -1.816328   -1.291753
      4          7           0        3.763681   -3.121015   -1.126335
      5          6           0        5.069380   -3.010724   -1.100581
      6          1           0        5.759950   -3.846268   -0.982583
      7          7           0        1.942910    0.079092   -1.553878
      8          6           0        3.069535    0.797238   -1.604411
      9          1           0        2.931838    1.869890   -1.733736
     10          7           0        4.334789    0.391213   -1.519569
     11          6           0        4.392136   -0.941599   -1.362230
     12          6           0        2.034240   -1.259365   -1.394885
     13          7           0        0.910745   -1.977941   -1.344210
     14          1           0        0.930840   -2.971527   -1.227588
     15          1           0        0.011142   -1.547857   -1.421040
     16          1           0        7.406954   -1.664356   -2.010546
     17          1           0        6.921530   -0.244277   -1.368832
     18          1           0        7.359460   -1.474265   -0.390350
     19          7           0        3.981038    2.510732    1.295959
     20          6           0        2.631932    2.254191    1.249747
     21          6           0        4.612236    3.815072    1.011341
     22          7           0       -0.619521    3.342497    0.697083
     23          1           0       -1.540888    2.955483    0.720291
     24          1           0       -0.539580    4.309493    0.453710
     25          7           0        1.664036    3.143409    0.939067
     26          6           0        0.460895    2.598951    0.979491
     27          7           0        0.221763    1.284431    1.299447
     28          1           0       -0.731086    0.954287    1.305329
     29          6           0        1.202296    0.351638    1.622449
     30          8           0        0.879841   -0.811032    1.896203
     31          6           0        2.500074    0.921831    1.583272
     32          7           0        3.741423    0.353359    1.833834
     33          6           0        4.587445    1.330747    1.651680
     34          1           0        5.668789    1.245063    1.764040
     35          1           0        5.244162    3.720814    0.242851
     36          1           0        3.904979    4.481782    0.779939
     37          1           0        5.112786    4.128062    1.817754
     38          1           0       -5.615938   -0.224943    0.530506
     39          1           0       -5.718054   -0.060107    2.281808
     40          1           0       -4.572859    0.923653    1.369605
     41          1           0       -3.713640   -4.418989    1.922567
     42          6           0       -3.427888   -3.370254    1.840522
     43          8           0       -1.101585   -3.799728    2.016582
     44          6           0       -2.042123   -3.016368    1.888010
     45          1           0       -0.822535   -1.375039    1.804630
     46          7           0       -1.790217   -1.663920    1.775399
     47          8           0       -2.393161    0.512330    1.535415
     48          6           0       -2.713758   -0.659633    1.627030
     49          1           0       -5.418587   -2.629724    1.654747
     50          6           0       -4.351960   -2.413191    1.696559
     51          6           0       -5.051215   -0.042441    1.432641
     52          7           0       -4.028606   -1.080355    1.589967
     53          1           0       -4.865785    4.029756   -2.400199
     54          1           0       -3.617038    3.958956   -1.352483
     55          1           0       -5.151345    3.927459   -0.796635
     56          1           0       -2.611221   -2.996266   -1.614402
     57          1           0       -4.242953   -2.573937   -1.877496
     58          7           0       -3.304650   -2.279855   -1.692201
     59          6           0       -2.993036   -0.989401   -1.555102
     60          6           0       -3.455364    1.343771   -1.489427
     61          7           0       -2.186921    1.709479   -1.240948
     62          1           0       -0.347794    0.846826   -0.968900
     63          6           0       -1.398151    0.639190   -1.168634
     64          7           0       -1.708355   -0.654088   -1.305661
     65          1           0       -6.620516    1.723745   -2.027594
     66          6           0       -5.614232    1.333069   -1.873591
     67          7           0       -5.296622    0.061766   -1.897701
     68          6           0       -3.930604    0.054541   -1.655513
     69          6           0       -4.545378    3.638020   -1.537722
     70          7           0       -4.548540    2.165204   -1.631577
 ---------------------------------------------------------------------

 SCF Done:  E(RwB97XD) =  -2048.74901417     A.U. after   15 cycles

 The electronic state is 1-A.
 Alpha  occ. eigenvalues --  -19.25466 -19.21677 -19.20359 -14.52815 -14.52106
 Alpha  occ. eigenvalues --  -14.48604 -14.48506 -14.48420 -14.47475 -14.46526
 Alpha  occ. eigenvalues --  -14.45854 -14.45792 -14.44537 -14.44517 -14.42449
 Alpha  occ. eigenvalues --  -14.41644 -14.41153 -14.40868 -14.40545 -14.40215
 Alpha  occ. eigenvalues --  -10.45092 -10.40791 -10.40282 -10.39797 -10.38318
 Alpha  occ. eigenvalues --  -10.37924 -10.37555 -10.37493 -10.35951 -10.35435
 Alpha  occ. eigenvalues --  -10.34515 -10.34321 -10.33958 -10.33845 -10.33162
 Alpha  occ. eigenvalues --  -10.33028 -10.32992 -10.32938 -10.30862 -10.30809
 Alpha  occ. eigenvalues --  -10.30621 -10.28348 -10.27734  -1.19121  -1.15517
 Alpha  occ. eigenvalues --   -1.12871  -1.12698  -1.11088  -1.10256  -1.09578
 Alpha  occ. eigenvalues --   -1.08993  -1.08159  -1.05133  -1.04970  -1.02119
 Alpha  occ. eigenvalues --   -1.01332  -1.00444  -0.99179  -0.98220  -0.97155
 Alpha  occ. eigenvalues --   -0.96745  -0.96259  -0.92671  -0.90762  -0.87944
 Alpha  occ. eigenvalues --   -0.86267  -0.83792  -0.83704  -0.83181  -0.82185
 Alpha  occ. eigenvalues --   -0.82159  -0.78577  -0.77334  -0.75199  -0.74250
 Alpha  occ. eigenvalues --   -0.73220  -0.72990  -0.72830  -0.70973  -0.70732
 Alpha  occ. eigenvalues --   -0.67175  -0.66914  -0.66252  -0.66171  -0.64613
 Alpha  occ. eigenvalues --   -0.64139  -0.63451  -0.62682  -0.62440  -0.61297
 Alpha  occ. eigenvalues --   -0.60857  -0.60586  -0.60523  -0.59681  -0.59272
 Alpha  occ. eigenvalues --   -0.59070  -0.57829  -0.56727  -0.56369  -0.56041
 Alpha  occ. eigenvalues --   -0.55743  -0.55689  -0.55442  -0.54439  -0.54208
 Alpha  occ. eigenvalues --   -0.53871  -0.53559  -0.53319  -0.53229  -0.52846
 Alpha  occ. eigenvalues --   -0.52597  -0.52023  -0.51655  -0.50634  -0.50116
 Alpha  occ. eigenvalues --   -0.50028  -0.49811  -0.49420  -0.49028  -0.48835
 Alpha  occ. eigenvalues --   -0.48501  -0.48121  -0.47965  -0.47261  -0.47061
 Alpha  occ. eigenvalues --   -0.46786  -0.45659  -0.45047  -0.44468  -0.43551
 Alpha  occ. eigenvalues --   -0.41178  -0.40915  -0.39174  -0.37954  -0.37880
 Alpha  occ. eigenvalues --   -0.37278  -0.36968  -0.36727  -0.35722  -0.34913
 Alpha  occ. eigenvalues --   -0.34700  -0.33544  -0.33405  -0.33106  -0.32855
 Alpha  occ. eigenvalues --   -0.32392  -0.32156  -0.31933  -0.31613  -0.30778
 Alpha  occ. eigenvalues --   -0.30425  -0.30050  -0.25757  -0.24887
 Alpha virt. eigenvalues --    0.03069   0.03915   0.06647   0.07962   0.08898
 Alpha virt. eigenvalues --    0.09479   0.09969   0.10207   0.11226   0.12029
 Alpha virt. eigenvalues --    0.12422   0.14108   0.14488   0.14905   0.15234

 Mulliken charges:
               1
     1  N   -0.313530
     2  C    0.181575
     3  C    0.054987
     4  N   -0.261270
     5  C    0.138550
     6  H    0.026296
     7  N   -0.293979
     8  C    0.136968
     9  H    0.011150
    10  N   -0.286683
    11  C    0.258768
    12  C    0.103607
    13  N   -0.056444
    14  H    0.109380
    15  H    0.082325
    16  H    0.024229
    17  H    0.029875
    18  H    0.027733
    19  N   -0.299237
    20  C    0.233034
    21  C    0.180576
    22  N   -0.095651
    23  H    0.111405
    24  H    0.111874
    25  N   -0.304460
    26  C    0.216269
    27  N   -0.145796
    28  H    0.122517
    29  C    0.185309
    30  O   -0.323807
    31  C   -0.011168
    32  N   -0.223583
    33  C    0.131829
    34  H    0.017502
    35  H    0.029439
    36  H    0.027372
    37  H    0.022947
    38  H    0.062733
    39  H    0.058063
    40  H    0.070236
    41  H    0.028052
    42  C   -0.113371
    43  O   -0.264521
    44  C    0.171701
    45  H    0.131439
    46  N   -0.122138
    47  O   -0.337520
    48  C    0.333289
    49  H    0.045452
    50  C    0.165170
    51  C    0.036478
    52  N   -0.281237
    53  H    0.036158
    54  H    0.035963
    55  H    0.030067
    56  H    0.122399
    57  H    0.116790
    58  N   -0.057704
    59  C    0.087334
    60  C    0.256645
    61  N   -0.280549
    62  H    0.051434
    63  C    0.155267
    64  N   -0.301411
    65  H    0.038442
    66  C    0.134705
    67  N   -0.261260
    68  C    0.020085
    69  C    0.180595
    70  N   -0.308691
 Sum of Mulliken charges =  -0.00000

 Dipole moment (field-independent basis, Debye):
    X=             -8.1102    Y=              6.1627    Z=             -2.7133  Tot=             10.5412
 Quadrupole moment (field-independent basis, Debye-Ang):
   XX=           -154.8441   YY=           -220.1162   ZZ=           -255.5501
   XY=              0.2344   XZ=             -4.2311   YZ=             10.1249

 Normal termination of Gaussian 16 at Tue Jan 23 15:44:31 2018.
