 Gaussian 16, Revision A.03,
 Gaussian 16:  EM64L-G16RevA.03 25-Dec-2016

 ---------------------------------------
 #p wb97xd/cc-pvdz sp scf=(maxcycles=20)
 ---------------------------------------

 ------------------
 Base pair stacking
 ------------------
 Symbolic Z-matrix:
 Charge =  0 Multiplicity = 1

                         Standard orientation:
 ---------------------------------------------------------------------
 Center     Atomic      Atomic             Coordinates (Angstroms)
 Number     Number       Type             X           Y           Z
 ---------------------------------------------------------------------
      1          7           0        4.239169   -2.116980   -1.896257
      2          6           0        5.610663   -1.748670   -2.297943
      3          6           0        2.074403   -2.075438   -1.509806
      4          7           0        2.518519   -3.323132   -1.096577
      5          6           0        3.804941   -3.298220   -1.345943
      6          1           0        4.491216   -4.121720   -1.146381
      7          7           0        0.702481   -0.218606   -1.992443
      8          6           0        1.808355    0.386012   -2.438593
      9          1           0        1.665528    1.398276   -2.814343
     10          7           0        3.058308   -0.069925   -2.490058
     11          6           0        3.123649   -1.320883   -2.005019
     12          6           0        0.801352   -1.476883   -1.510736
     13          7           0       -0.301441   -2.082088   -1.064914
     14          1           0       -0.275065   -3.013298   -0.699719
     15          1           0       -1.191091   -1.625565   -1.080766
     16          1           0        5.937061   -2.385220   -2.996832
     17          1           0        5.612496   -0.819906   -2.667419
     18          1           0        6.215672   -1.790452   -1.502825
     19          7           0        5.212208    2.463985    0.636926
     20          6           0        3.866155    2.273862    0.837038
     21          6           0        5.852945    3.753765    0.310380
     22          7           0        0.637883    3.546068    0.983685
     23          1           0       -0.283362    3.201468    1.162002
     24          1           0        0.726458    4.522422    0.784631
     25          7           0        2.910400    3.225716    0.769519
     26          6           0        1.707060    2.736093    1.010067
     27          7           0        1.456720    1.415641    1.295113
     28          1           0        0.504639    1.130324    1.465746
     29          6           0        2.424655    0.418961    1.369797
     30          8           0        2.092732   -0.743212    1.634232
     31          6           0        3.722486    0.929757    1.113702
     32          7           0        4.953574    0.288941    1.087801
     33          6           0        5.805244    1.236064    0.801724
     34          1           0        6.881443    1.093075    0.698618
     35          1           0        6.321311    3.681836   -0.569538
     36          1           0        5.154713    4.466484    0.257716
     37          1           0        6.514521    3.988710    1.021664
     38          1           0       -4.498780    0.232989    1.581002
     39          1           0       -4.257582    0.285127    3.325633
     40          1           0       -3.250575    1.273462    2.267110
     41          1           0       -2.614800   -4.128215    2.340643
     42          6           0       -2.289173   -3.090711    2.264623
     43          8           0       -0.000659   -3.638284    1.964593
     44          6           0       -0.901285   -2.805362    2.064214
     45          1           0        0.373924   -1.220383    1.840555
     46          7           0       -0.596935   -1.461533    1.981984
     47          8           0       -1.106639    0.751469    1.986316
     48          6           0       -1.471778   -0.407885    2.071441
     49          1           0       -4.232466   -2.248020    2.508097
     50          6           0       -3.166449   -2.084403    2.355826
     51          6           0       -3.763760    0.328519    2.366295
     52          7           0       -2.792077   -0.763837    2.264604
     53          1           0       -6.072051    3.841409   -2.544104
     54          1           0       -4.641347    3.952725   -1.767713
     55          1           0       -6.034901    4.165767   -0.945093
     56          1           0       -3.823269   -2.895745   -0.394873
     57          1           0       -5.467483   -2.444250   -0.447712
     58          7           0       -4.506332   -2.176940   -0.524820
     59          6           0       -4.152302   -0.917605   -0.789219
     60          6           0       -4.553556    1.382579   -1.247316
     61          7           0       -3.255151    1.712692   -1.345180
     62          1           0       -1.413213    0.824368   -1.208222
     63          6           0       -2.485614    0.644447   -1.146243
     64          7           0       -2.838278   -0.617695   -0.881308
     65          1           0       -7.755771    1.827319   -1.261866
     66          6           0       -6.745584    1.421091   -1.203207
     67          7           0       -6.460253    0.166260   -0.954878
     68          6           0       -5.073660    0.128167   -0.979984
     69          6           0       -5.593177    3.658835   -1.685418
     70          7           0       -5.639382    2.213530   -1.390514
 ---------------------------------------------------------------------

 SCF Done:  E(RwB97XD) =  -2048.74703553     A.U. after   15 cycles

 The electronic state is 1-A.
 Alpha  occ. eigenvalues --  -19.25463 -19.21605 -19.20727 -14.52503 -14.51993
 Alpha  occ. eigenvalues --  -14.49167 -14.48881 -14.47863 -14.47336 -14.46975
 Alpha  occ. eigenvalues --  -14.46802 -14.45469 -14.44905 -14.44673 -14.42559
 Alpha  occ. eigenvalues --  -14.42207 -14.41416 -14.40665 -14.40451 -14.40280
 Alpha  occ. eigenvalues --  -10.45030 -10.41410 -10.40449 -10.39715 -10.38378
 Alpha  occ. eigenvalues --  -10.38052 -10.37651 -10.37447 -10.36168 -10.35359
 Alpha  occ. eigenvalues --  -10.34647 -10.34596 -10.33847 -10.33803 -10.33240
 Alpha  occ. eigenvalues --  -10.32981 -10.32830 -10.32785 -10.31254 -10.30855
 Alpha  occ. eigenvalues --  -10.29949 -10.28413 -10.28041  -1.18984  -1.15314
 Alpha  occ. eigenvalues --   -1.13371  -1.12627  -1.10894  -1.10537  -1.09814
 Alpha  occ. eigenvalues --   -1.08891  -1.08702  -1.05280  -1.04889  -1.02006
 Alpha  occ. eigenvalues --   -1.01096  -1.00351  -0.99891  -0.98764  -0.97307
 Alpha  occ. eigenvalues --   -0.96936  -0.96206  -0.92593  -0.90787  -0.87848
 Alpha  occ. eigenvalues --   -0.85982  -0.84437  -0.83274  -0.83161  -0.82801
 Alpha  occ. eigenvalues --   -0.81584  -0.78527  -0.77344  -0.75148  -0.74879
 Alpha  occ. eigenvalues --   -0.73802  -0.72955  -0.72542  -0.70774  -0.70617
 Alpha  occ. eigenvalues --   -0.67581  -0.67157  -0.66195  -0.65945  -0.64543
 Alpha  occ. eigenvalues --   -0.64493  -0.63667  -0.62768  -0.62411  -0.61976
 Alpha  occ. eigenvalues --   -0.60827  -0.60465  -0.60042  -0.59526  -0.59255
 Alpha  occ. eigenvalues --   -0.59099  -0.58511  -0.56943  -0.56227  -0.55822
 Alpha  occ. eigenvalues --   -0.55484  -0.55385  -0.55266  -0.54766  -0.54256
 Alpha  occ. eigenvalues --   -0.53814  -0.53677  -0.53553  -0.53147  -0.52986
 Alpha  occ. eigenvalues --   -0.52549  -0.52012  -0.51105  -0.50382  -0.50223
 Alpha  occ. eigenvalues --   -0.50058  -0.49687  -0.49511  -0.49211  -0.48937
 Alpha  occ. eigenvalues --   -0.48493  -0.48291  -0.48084  -0.47899  -0.47282
 Alpha  occ. eigenvalues --   -0.46460  -0.45655  -0.45534  -0.44634  -0.43505
 Alpha  occ. eigenvalues --   -0.40951  -0.40870  -0.39157  -0.38050  -0.37829
 Alpha  occ. eigenvalues --   -0.37569  -0.37472  -0.36620  -0.35495  -0.35173
 Alpha  occ. eigenvalues --   -0.34708  -0.34191  -0.33167  -0.33068  -0.32992
 Alpha  occ. eigenvalues --   -0.32687  -0.32641  -0.32068  -0.31632  -0.30428
 Alpha  occ. eigenvalues --   -0.30365  -0.30120  -0.25939  -0.25371
 Alpha virt. eigenvalues --    0.03330   0.03796   0.06676   0.08298   0.08771
 Alpha virt. eigenvalues --    0.09009   0.09590   0.10387   0.11263   0.11518
 Alpha virt. eigenvalues --    0.13698   0.14184   0.14390   0.14919   0.15048

 Mulliken charges:
               1
     1  N   -0.309976
     2  C    0.183023
     3  C    0.058626
     4  N   -0.253808
     5  C    0.147941
     6  H    0.027390
     7  N   -0.297525
     8  C    0.128013
     9  H    0.010224
    10  N   -0.282068
    11  C    0.253536
    12  C    0.085062
    13  N   -0.069369
    14  H    0.115258
    15  H    0.082169
    16  H    0.019868
    17  H    0.029685
    18  H    0.031385
    19  N   -0.311101
    20  C    0.257159
    21  C    0.181227
    22  N   -0.123980
    23  H    0.119981
    24  H    0.118547
    25  N   -0.312968
    26  C    0.249262
    27  N   -0.146921
    28  H    0.120823
    29  C    0.192596
    30  O   -0.319346
    31  C   -0.012088
    32  N   -0.233521
    33  C    0.123922
    34  H    0.022965
    35  H    0.027571
    36  H    0.030524
    37  H    0.025345
    38  H    0.065842
    39  H    0.058298
    40  H    0.075854
    41  H    0.025479
    42  C   -0.122372
    43  O   -0.258780
    44  C    0.161809
    45  H    0.135371
    46  N   -0.122449
    47  O   -0.352570
    48  C    0.354644
    49  H    0.040394
    50  C    0.169287
    51  C    0.036805
    52  N   -0.278363
    53  H    0.034081
    54  H    0.041638
    55  H    0.029922
    56  H    0.117249
    57  H    0.118954
    58  N   -0.065246
    59  C    0.081729
    60  C    0.245331
    61  N   -0.270100
    62  H    0.033161
    63  C    0.175641
    64  N   -0.313866
    65  H    0.039636
    66  C    0.140964
    67  N   -0.260713
    68  C    0.023642
    69  C    0.180449
    70  N   -0.311147
 Sum of Mulliken charges =  -0.00000

 Dipole moment (field-independent basis, Debye):
    X=             -7.9311    Y=              7.1253    Z=             -0.1848  Tot=             10.6633
 Quadrupole moment (field-independent basis, Debye-Ang):
   XX=           -165.1188   YY=           -217.7384   ZZ=           -249.4498
   XY=              4.6675   XZ=            -17.1638   YZ=              4.8986

 Normal termination of Gaussian 16 at Tue Jan 23 19:11:38 2018.
