 Gaussian 16, Revision A.03,
 Gaussian 16:  EM64L-G16RevA.03 25-Dec-2016

 ---------------------------------------
 #p wb97xd/cc-pvdz sp scf=(maxcycles=20)
 ---------------------------------------

 ------------------
 Base pair stacking
 ------------------
 Symbolic Z-matrix:
 Charge =  0 Multiplicity = 1

                         Standard orientation:
 ---------------------------------------------------------------------
 Center     Atomic      Atomic             Coordinates (Angstroms)
 Number     Number       Type             X           Y           Z
 ---------------------------------------------------------------------
      1          7           0       -7.212552   -1.429964    0.080725
      2          6           0       -8.593040   -0.911745    0.019889
      3          6           0       -5.040689   -1.608624    0.378028
      4          7           0       -5.472126   -2.843801   -0.083386
      5          6           0       -6.763339   -2.686733   -0.244029
      6          1           0       -7.442622   -3.461791   -0.600134
      7          7           0       -3.685147    0.156929    1.157955
      8          6           0       -4.801778    0.890532    1.208298
      9          1           0       -4.669995    1.914884    1.554135
     10          7           0       -6.050903    0.550349    0.897059
     11          6           0       -6.102209   -0.726910    0.484257
     12          6           0       -3.770016   -1.124415    0.738390
     13          7           0       -2.656468   -1.858305    0.687441
     14          1           0       -2.672321   -2.811369    0.383082
     15          1           0       -1.768914   -1.480689    0.951625
     16          1           0       -9.181532   -1.456096    0.617823
     17          1           0       -8.605467    0.041691    0.319761
     18          1           0       -8.931473   -0.968410   -0.919398
     19          7           0       -2.020762    2.694341   -1.799986
     20          6           0       -0.705764    2.372301   -1.565210
     21          6           0       -2.586540    4.057711   -1.757283
     22          7           0        2.534747    3.343686   -0.779557
     23          1           0        3.423975    2.906871   -0.646496
     24          1           0        2.496579    4.337398   -0.670861
     25          7           0        0.282476    3.240274   -1.258523
     26          6           0        1.442016    2.629841   -1.089815
     27          7           0        1.622095    1.273286   -1.211671
     28          1           0        2.544641    0.893306   -1.065031
     29          6           0        0.619619    0.361263   -1.526468
     30          8           0        0.887921   -0.843479   -1.612223
     31          6           0       -0.631836    1.002199   -1.710658
     32          7           0       -1.875411    0.474695   -2.030314
     33          6           0       -2.665945    1.512728   -2.072362
     34          1           0       -3.732110    1.472556   -2.298062
     35          1           0       -3.302925    4.101457   -1.061804
     36          1           0       -1.863704    4.709306   -1.530993
     37          1           0       -2.973865    4.287746   -2.649392
     38          1           0        7.222799   -0.439639    0.415077
     39          1           0        7.525019   -0.515075   -1.319169
     40          1           0        6.359270    0.642833   -0.677596
     41          1           0        5.194435   -4.670366   -0.649449
     42          6           0        4.975315   -3.605907   -0.733940
     43          8           0        2.657463   -3.926196   -1.123917
     44          6           0        3.630895   -3.185702   -0.986496
     45          1           0        2.526898   -1.483197   -1.252947
     46          7           0        3.463217   -1.818484   -1.075196
     47          8           0        4.186949    0.333806   -1.042703
     48          6           0        4.433069   -0.855791   -0.948064
     49          1           0        6.981016   -2.958030   -0.412603
     50          6           0        5.942874   -2.690564   -0.605143
     51          6           0        6.773094   -0.347920   -0.562383
     52          7           0        5.703629   -1.339625   -0.705611
     53          1           0        3.006870    3.648359    3.547337
     54          1           0        1.897049    3.816619    2.363251
     55          1           0        3.488043    3.837857    1.999439
     56          1           0        0.793970   -3.027211    1.179787
     57          1           0        2.384776   -2.716671    1.711742
     58          7           0        1.479833   -2.361707    1.474472
     59          6           0        1.201111   -1.058609    1.548100
     60          6           0        1.692353    1.228837    1.981694
     61          7           0        0.468415    1.677038    1.656857
     62          1           0       -1.331682    0.942826    1.007861
     63          6           0       -0.316431    0.666285    1.289017
     64          7           0       -0.039147   -0.639525    1.214612
     65          1           0        4.770099    1.394774    2.957436
     66          6           0        3.786672    1.073857    2.612730
     67          7           0        3.455265   -0.168137    2.357230
     68          6           0        2.129831   -0.083980    1.956153
     69          6           0        2.791840    3.435654    2.594177
     70          7           0        2.767970    1.971976    2.406895
 ---------------------------------------------------------------------

 SCF Done:  E(RwB97XD) =  -2048.74535280     A.U. after   15 cycles

 The electronic state is 1-A.
 Alpha  occ. eigenvalues --  -19.26049 -19.22414 -19.20921 -14.52650 -14.51091
 Alpha  occ. eigenvalues --  -14.49090 -14.48951 -14.48147 -14.47525 -14.47257
 Alpha  occ. eigenvalues --  -14.46135 -14.44098 -14.42456 -14.42398 -14.42362
 Alpha  occ. eigenvalues --  -14.42297 -14.41776 -14.41184 -14.40959 -14.40409
 Alpha  occ. eigenvalues --  -10.45712 -10.41639 -10.40488 -10.38555 -10.38091
 Alpha  occ. eigenvalues --  -10.38040 -10.36650 -10.35654 -10.35567 -10.35536
 Alpha  occ. eigenvalues --  -10.34574 -10.34426 -10.34038 -10.33696 -10.33451
 Alpha  occ. eigenvalues --  -10.33365 -10.32922 -10.31319 -10.31202 -10.31035
 Alpha  occ. eigenvalues --  -10.30960 -10.28872 -10.28400  -1.19621  -1.13804
 Alpha  occ. eigenvalues --   -1.13490  -1.13404  -1.11684  -1.10822  -1.09546
 Alpha  occ. eigenvalues --   -1.09018  -1.07410  -1.05246  -1.03002  -1.02767
 Alpha  occ. eigenvalues --   -1.00656  -1.00386  -0.99489  -0.98815  -0.97251
 Alpha  occ. eigenvalues --   -0.96772  -0.95010  -0.92878  -0.91286  -0.86154
 Alpha  occ. eigenvalues --   -0.84602  -0.84357  -0.84239  -0.83913  -0.82681
 Alpha  occ. eigenvalues --   -0.82597  -0.79119  -0.75417  -0.74900  -0.74108
 Alpha  occ. eigenvalues --   -0.73627  -0.73177  -0.73113  -0.71339  -0.68797
 Alpha  occ. eigenvalues --   -0.67801  -0.66802  -0.66556  -0.65150  -0.64714
 Alpha  occ. eigenvalues --   -0.64017  -0.63013  -0.62958  -0.62556  -0.62212
 Alpha  occ. eigenvalues --   -0.60408  -0.59775  -0.59761  -0.59017  -0.58979
 Alpha  occ. eigenvalues --   -0.58704  -0.58078  -0.56815  -0.56705  -0.56669
 Alpha  occ. eigenvalues --   -0.56215  -0.55582  -0.54671  -0.54615  -0.53921
 Alpha  occ. eigenvalues --   -0.53905  -0.53588  -0.53190  -0.52712  -0.52433
 Alpha  occ. eigenvalues --   -0.52123  -0.51922  -0.51354  -0.51029  -0.50438
 Alpha  occ. eigenvalues --   -0.50419  -0.49694  -0.49333  -0.49126  -0.48860
 Alpha  occ. eigenvalues --   -0.48504  -0.48489  -0.48000  -0.47717  -0.47471
 Alpha  occ. eigenvalues --   -0.47231  -0.45386  -0.45253  -0.44296  -0.43052
 Alpha  occ. eigenvalues --   -0.41453  -0.39659  -0.39227  -0.37676  -0.37512
 Alpha  occ. eigenvalues --   -0.37454  -0.36342  -0.35991  -0.35907  -0.35000
 Alpha  occ. eigenvalues --   -0.33825  -0.33790  -0.33573  -0.33020  -0.32971
 Alpha  occ. eigenvalues --   -0.32498  -0.32299  -0.32215  -0.32073  -0.31268
 Alpha  occ. eigenvalues --   -0.30596  -0.28297  -0.26050  -0.25724
 Alpha virt. eigenvalues --    0.02818   0.05544   0.07680   0.08181   0.08417
 Alpha virt. eigenvalues --    0.09279   0.09381   0.10696   0.11486   0.12343
 Alpha virt. eigenvalues --    0.12739   0.13748   0.14421   0.14710   0.15530

 Mulliken charges:
               1
     1  N   -0.310765
     2  C    0.180896
     3  C    0.029613
     4  N   -0.258258
     5  C    0.133210
     6  H    0.027416
     7  N   -0.289102
     8  C    0.127830
     9  H    0.011367
    10  N   -0.288569
    11  C    0.239464
    12  C    0.119918
    13  N   -0.051064
    14  H    0.108239
    15  H    0.089393
    16  H    0.026243
    17  H    0.035255
    18  H    0.025869
    19  N   -0.309142
    20  C    0.247487
    21  C    0.181909
    22  N   -0.119670
    23  H    0.116142
    24  H    0.117744
    25  N   -0.295063
    26  C    0.228326
    27  N   -0.124735
    28  H    0.118227
    29  C    0.163383
    30  O   -0.322032
    31  C   -0.012948
    32  N   -0.219796
    33  C    0.132024
    34  H    0.031338
    35  H    0.030922
    36  H    0.028078
    37  H    0.024847
    38  H    0.061140
    39  H    0.060588
    40  H    0.072801
    41  H    0.032114
    42  C   -0.110024
    43  O   -0.272900
    44  C    0.163220
    45  H    0.135815
    46  N   -0.134383
    47  O   -0.353270
    48  C    0.367708
    49  H    0.049132
    50  C    0.177570
    51  C    0.042293
    52  N   -0.296549
    53  H    0.031534
    54  H    0.044490
    55  H    0.006975
    56  H    0.123866
    57  H    0.115955
    58  N   -0.049692
    59  C    0.103957
    60  C    0.236196
    61  N   -0.262123
    62  H    0.041321
    63  C    0.154948
    64  N   -0.298284
    65  H    0.025791
    66  C    0.128717
    67  N   -0.267104
    68  C    0.022337
    69  C    0.179023
    70  N   -0.307159
 Sum of Mulliken charges =  -0.00000

 Dipole moment (field-independent basis, Debye):
    X=              7.9691    Y=              5.6830    Z=              1.8294  Tot=              9.9574
 Quadrupole moment (field-independent basis, Debye-Ang):
   XX=           -143.0899   YY=           -220.5531   ZZ=           -250.0106
   XY=              5.7036   XZ=             15.1010   YZ=             -6.8443

 Normal termination of Gaussian 16 at Tue Jan 23 19:00:37 2018.
