 Gaussian 16, Revision A.03,
 Gaussian 16:  EM64L-G16RevA.03 25-Dec-2016

 ---------------------------------------
 #p wb97xd/cc-pvdz sp scf=(maxcycles=20)
 ---------------------------------------

 ------------------
 Base pair stacking
 ------------------
 Symbolic Z-matrix:
 Charge =  0 Multiplicity = 1

                         Standard orientation:
 ---------------------------------------------------------------------
 Center     Atomic      Atomic             Coordinates (Angstroms)
 Number     Number       Type             X           Y           Z
 ---------------------------------------------------------------------
      1          7           0       -5.249110   -2.113505    1.285154
      2          6           0       -6.633928   -1.755674    1.648780
      3          6           0       -3.060155   -2.112891    1.071167
      4          7           0       -3.515485   -3.237846    0.398957
      5          6           0       -4.816027   -3.193195    0.554780
      6          1           0       -5.514057   -3.928957    0.154329
      7          7           0       -1.663676   -0.450885    1.993390
      8          6           0       -2.778740    0.116895    2.464375
      9          1           0       -2.629228    1.033317    3.033655
     10          7           0       -4.044839   -0.275560    2.338309
     11          6           0       -4.117214   -1.409976    1.622576
     12          6           0       -1.769991   -1.591368    1.277110
     13          7           0       -0.658044   -2.159632    0.806129
     14          1           0       -0.689413   -3.004465    0.270886
     15          1           0        0.243767   -1.760471    0.972143
     16          1           0       -7.039113   -2.492946    2.189551
     17          1           0       -6.631092   -0.912571    2.185707
     18          1           0       -7.173887   -1.618201    0.818395
     19          7           0       -4.231029    2.828804   -1.008349
     20          6           0       -2.881419    2.590339   -1.107081
     21          6           0       -4.846673    4.134312   -0.696377
     22          7           0        0.393949    3.736057   -0.962028
     23          1           0        1.312836    3.359662   -1.076988
     24          1           0        0.326649    4.709729   -0.742574
     25          7           0       -1.898879    3.501247   -0.937053
     26          6           0       -0.699504    2.970333   -1.095941
     27          7           0       -0.477187    1.648702   -1.398244
     28          1           0        0.474029    1.330104   -1.501399
     29          6           0       -1.472982    0.693676   -1.577670
     30          8           0       -1.165081   -0.473635   -1.848437
     31          6           0       -2.766927    1.249124   -1.410117
     32          7           0       -4.019450    0.657480   -1.499821
     33          6           0       -4.854911    1.630167   -1.254665
     34          1           0       -5.940530    1.527633   -1.240914
     35          1           0       -5.386250    4.058556    0.141436
     36          1           0       -4.128492    4.817022   -0.568325
     37          1           0       -5.439964    4.413666   -1.450562
     38          1           0        5.433224    0.237085   -1.247508
     39          1           0        5.334363    0.343605   -3.003512
     40          1           0        4.283987    1.343823   -1.999691
     41          1           0        3.452747   -4.024525   -2.278526
     42          6           0        3.161467   -2.977147   -2.198599
     43          8           0        0.837278   -3.440477   -2.095856
     44          6           0        1.773763   -2.641874   -2.100137
     45          1           0        0.545482   -1.013546   -1.932217
     46          7           0        1.514745   -1.289536   -2.003520
     47          8           0        2.106304    0.900747   -1.903971
     48          6           0        2.433078   -0.269674   -1.993361
     49          1           0        5.148421   -2.206688   -2.263720
     50          6           0        4.080582   -2.004627   -2.191350
     51          6           0        4.767442    0.382013   -2.085253
     52          7           0        3.750214   -0.672948   -2.091970
     53          1           0        5.190293    3.081593    3.789796
     54          1           0        3.832079    3.408455    2.946877
     55          1           0        5.294459    3.697961    2.282255
     56          1           0        2.873733   -3.015776    0.251267
     57          1           0        4.523946   -2.667346    0.507172
     58          7           0        3.570295   -2.369702    0.563562
     59          6           0        3.243096   -1.164552    1.034442
     60          6           0        3.691201    0.987172    1.946029
     61          7           0        2.402289    1.360015    2.010192
     62          1           0        0.545708    0.608686    1.575201
     63          6           0        1.612189    0.388255    1.558161
     64          7           0        1.937977   -0.819482    1.086123
     65          1           0        6.896083    1.255655    2.275908
     66          6           0        5.879548    0.920004    2.068733
     67          7           0        5.568793   -0.250703    1.568158
     68          6           0        4.184236   -0.221165    1.485227
     69          6           0        4.775877    3.086170    2.879727
     70          7           0        4.792029    1.720058    2.321601
 ---------------------------------------------------------------------

 SCF Done:  E(RwB97XD) =  -2048.73972271     A.U. after   15 cycles

 The electronic state is 1-A.
 Alpha  occ. eigenvalues --  -19.26019 -19.22555 -19.20743 -14.52696 -14.52267
 Alpha  occ. eigenvalues --  -14.48978 -14.48082 -14.48010 -14.47897 -14.47094
 Alpha  occ. eigenvalues --  -14.46883 -14.45383 -14.44166 -14.44069 -14.42201
 Alpha  occ. eigenvalues --  -14.41577 -14.41093 -14.40455 -14.40266 -14.39705
 Alpha  occ. eigenvalues --  -10.45657 -10.41439 -10.40552 -10.39826 -10.38374
 Alpha  occ. eigenvalues --  -10.38156 -10.37883 -10.37017 -10.35566 -10.35066
 Alpha  occ. eigenvalues --  -10.34762 -10.34529 -10.33677 -10.33529 -10.33205
 Alpha  occ. eigenvalues --  -10.32566 -10.32545 -10.32475 -10.31314 -10.31090
 Alpha  occ. eigenvalues --  -10.30325 -10.28291 -10.27718  -1.19594  -1.15024
 Alpha  occ. eigenvalues --   -1.13503  -1.13366  -1.10766  -1.10471  -1.09650
 Alpha  occ. eigenvalues --   -1.09135  -1.08741  -1.04753  -1.04364  -1.02713
 Alpha  occ. eigenvalues --   -1.00860  -0.99946  -0.99742  -0.98725  -0.96783
 Alpha  occ. eigenvalues --   -0.96754  -0.96103  -0.92043  -0.91410  -0.87452
 Alpha  occ. eigenvalues --   -0.85716  -0.84304  -0.83701  -0.83171  -0.82683
 Alpha  occ. eigenvalues --   -0.81589  -0.79212  -0.76924  -0.74817  -0.74674
 Alpha  occ. eigenvalues --   -0.73843  -0.73585  -0.72194  -0.70400  -0.70269
 Alpha  occ. eigenvalues --   -0.67586  -0.66883  -0.66634  -0.65582  -0.64723
 Alpha  occ. eigenvalues --   -0.64191  -0.63964  -0.62848  -0.62003  -0.61953
 Alpha  occ. eigenvalues --   -0.60569  -0.60238  -0.60062  -0.59708  -0.59255
 Alpha  occ. eigenvalues --   -0.59117  -0.58569  -0.56783  -0.56168  -0.55937
 Alpha  occ. eigenvalues --   -0.55622  -0.55137  -0.54795  -0.54608  -0.54051
 Alpha  occ. eigenvalues --   -0.53859  -0.53715  -0.53507  -0.53367  -0.53177
 Alpha  occ. eigenvalues --   -0.52656  -0.52540  -0.51096  -0.50398  -0.50054
 Alpha  occ. eigenvalues --   -0.49792  -0.49678  -0.49442  -0.49125  -0.49004
 Alpha  occ. eigenvalues --   -0.48792  -0.48559  -0.48185  -0.47882  -0.47524
 Alpha  occ. eigenvalues --   -0.46268  -0.45875  -0.45540  -0.44214  -0.43556
 Alpha  occ. eigenvalues --   -0.40557  -0.40420  -0.39591  -0.37514  -0.37465
 Alpha  occ. eigenvalues --   -0.37452  -0.37411  -0.36407  -0.36133  -0.34617
 Alpha  occ. eigenvalues --   -0.34274  -0.34045  -0.33651  -0.32876  -0.32820
 Alpha  occ. eigenvalues --   -0.32767  -0.32659  -0.32479  -0.32050  -0.30199
 Alpha  occ. eigenvalues --   -0.29807  -0.29455  -0.25704  -0.24992
 Alpha virt. eigenvalues --    0.02268   0.04362   0.07040   0.08309   0.08682
 Alpha virt. eigenvalues --    0.09164   0.09605   0.10600   0.11617   0.11700
 Alpha virt. eigenvalues --    0.13283   0.14339   0.14630   0.15082   0.15134

 Mulliken charges:
               1
     1  N   -0.312540
     2  C    0.181579
     3  C    0.053210
     4  N   -0.256044
     5  C    0.139718
     6  H    0.024419
     7  N   -0.300437
     8  C    0.133918
     9  H    0.008476
    10  N   -0.290960
    11  C    0.253310
    12  C    0.102794
    13  N   -0.056824
    14  H    0.115731
    15  H    0.082776
    16  H    0.022997
    17  H    0.031200
    18  H    0.025016
    19  N   -0.311284
    20  C    0.252601
    21  C    0.180685
    22  N   -0.122666
    23  H    0.116052
    24  H    0.118116
    25  N   -0.311639
    26  C    0.248491
    27  N   -0.152072
    28  H    0.120962
    29  C    0.198736
    30  O   -0.321328
    31  C   -0.015601
    32  N   -0.226038
    33  C    0.130365
    34  H    0.022184
    35  H    0.029304
    36  H    0.029383
    37  H    0.024714
    38  H    0.063729
    39  H    0.059670
    40  H    0.073373
    41  H    0.028185
    42  C   -0.133657
    43  O   -0.266218
    44  C    0.160337
    45  H    0.130987
    46  N   -0.112405
    47  O   -0.343512
    48  C    0.337442
    49  H    0.046250
    50  C    0.170102
    51  C    0.037439
    52  N   -0.273986
    53  H    0.033809
    54  H    0.042571
    55  H    0.027679
    56  H    0.126994
    57  H    0.112323
    58  N   -0.048319
    59  C    0.090505
    60  C    0.252203
    61  N   -0.275174
    62  H    0.036917
    63  C    0.173660
    64  N   -0.314053
    65  H    0.037264
    66  C    0.137668
    67  N   -0.270214
    68  C    0.020617
    69  C    0.180252
    70  N   -0.311742
 Sum of Mulliken charges =  -0.00000

 Dipole moment (field-independent basis, Debye):
    X=              8.3415    Y=              6.8082    Z=              0.7374  Tot=             10.7924
 Quadrupole moment (field-independent basis, Debye-Ang):
   XX=           -157.7617   YY=           -218.0566   ZZ=           -250.3979
   XY=             -1.2436   XZ=             -6.6374   YZ=             -0.7042

 Normal termination of Gaussian 16 at Wed Jan 24 01:23:02 2018.
