 Gaussian 16, Revision A.03,
 Gaussian 16:  EM64L-G16RevA.03 25-Dec-2016

 ---------------------------------------
 #p wb97xd/cc-pvdz sp scf=(maxcycles=20)
 ---------------------------------------

 ------------------
 Base pair stacking
 ------------------
 Symbolic Z-matrix:
 Charge =  0 Multiplicity = 1

                         Standard orientation:
 ---------------------------------------------------------------------
 Center     Atomic      Atomic             Coordinates (Angstroms)
 Number     Number       Type             X           Y           Z
 ---------------------------------------------------------------------
      1          7           0       -6.120087   -1.625553    0.828680
      2          6           0       -7.506755   -1.121756    0.792211
      3          6           0       -3.931404   -1.759974    0.998795
      4          7           0       -4.380318   -3.046919    0.740013
      5          6           0       -5.680952   -2.914432    0.647891
      6          1           0       -6.374727   -3.731428    0.447555
      7          7           0       -2.544496    0.096671    1.437319
      8          6           0       -3.662645    0.829236    1.463486
      9          1           0       -3.518324    1.891278    1.657100
     10          7           0       -4.926361    0.448633    1.287223
     11          6           0       -4.992309   -0.873019    1.056307
     12          6           0       -2.644347   -1.229980    1.202564
     13          7           0       -1.529332   -1.962918    1.176054
     14          1           0       -1.555918   -2.948580    1.005830
     15          1           0       -0.629891   -1.551986    1.325359
     16          1           0       -8.048022   -1.580096    1.497281
     17          1           0       -7.508689   -0.136357    0.959871
     18          1           0       -7.907116   -1.306225   -0.105383
     19          7           0       -3.318520    2.600639   -1.544893
     20          6           0       -1.979604    2.319217   -1.417807
     21          6           0       -3.936637    3.924595   -1.330987
     22          7           0        1.259253    3.359096   -0.717625
     23          1           0        2.172171    2.953668   -0.679731
     24          1           0        1.186587    4.333993   -0.505465
     25          7           0       -1.011495    3.197838   -1.078905
     26          6           0        0.180345    2.629064   -1.038443
     27          7           0        0.408769    1.301580   -1.308838
     28          1           0        1.353384    0.952857   -1.253461
     29          6           0       -0.572202    0.379317   -1.659536
     30          8           0       -0.259901   -0.796737   -1.883379
     31          6           0       -1.857910    0.975613   -1.707134
     32          7           0       -3.095525    0.424597   -2.009763
     33          6           0       -3.929434    1.423083   -1.900992
     34          1           0       -5.004652    1.355372   -2.070086
     35          1           0       -4.611187    3.864552   -0.596003
     36          1           0       -3.229112    4.583679   -1.079434
     37          1           0       -4.386005    4.224276   -2.171861
     38          1           0        6.163114   -0.299031   -0.180142
     39          1           0        6.363539   -0.185997   -1.927060
     40          1           0        5.191491    0.845424   -1.106177
     41          1           0        4.251316   -4.492960   -1.559469
     42          6           0        3.983660   -3.436944   -1.521847
     43          8           0        1.661815   -3.825750   -1.813391
     44          6           0        2.610268   -3.057568   -1.654867
     45          1           0        1.422749   -1.391042   -1.683273
     46          7           0        2.381132   -1.697815   -1.593172
     47          8           0        3.015813    0.472195   -1.379946
     48          6           0        3.316189   -0.707927   -1.421846
     49          1           0        5.976491   -2.730444   -1.247488
     50          6           0        4.918492   -2.494404   -1.353596
     51          6           0        5.652133   -0.131219   -1.116525
     52          7           0        4.617947   -1.153019   -1.301291
     53          1           0        4.257297    3.887460    2.868340
     54          1           0        3.068539    3.891731    1.750789
     55          1           0        4.631095    3.864682    1.279888
     56          1           0        1.958208   -3.050568    1.586373
     57          1           0        3.577993   -2.668925    1.961531
     58          7           0        2.655537   -2.350474    1.740446
     59          6           0        2.369109   -1.049765    1.655108
     60          6           0        2.865041    1.275899    1.739310
     61          7           0        1.617481    1.674491    1.440753
     62          1           0       -0.214661    0.856989    1.021767
     63          6           0        0.820009    0.622301    1.268049
     64          7           0        1.104978   -0.681204    1.353079
     65          1           0        5.999701    1.576164    2.471394
     66          6           0        4.998612    1.210339    2.241342
     67          7           0        4.663447   -0.055210    2.180190
     68          6           0        3.313203   -0.027737    1.862669
     69          6           0        3.980705    3.546624    1.969828
     70          7           0        3.959223    2.071064    1.985271
 ---------------------------------------------------------------------

 SCF Done:  E(RwB97XD) =  -2048.74148547     A.U. after   15 cycles

 The electronic state is 1-A.
 Alpha  occ. eigenvalues --  -19.25819 -19.21991 -19.20512 -14.52362 -14.52312
 Alpha  occ. eigenvalues --  -14.48702 -14.48568 -14.47922 -14.47775 -14.46697
 Alpha  occ. eigenvalues --  -14.46190 -14.45323 -14.43914 -14.43667 -14.42314
 Alpha  occ. eigenvalues --  -14.41874 -14.41336 -14.40940 -14.40617 -14.40214
 Alpha  occ. eigenvalues --  -10.45421 -10.40897 -10.40096 -10.39605 -10.38051
 Alpha  occ. eigenvalues --  -10.37817 -10.37774 -10.36885 -10.35427 -10.35399
 Alpha  occ. eigenvalues --  -10.34897 -10.34129 -10.34119 -10.34014 -10.33292
 Alpha  occ. eigenvalues --  -10.33112 -10.33100 -10.32292 -10.31100 -10.30975
 Alpha  occ. eigenvalues --  -10.30706 -10.28464 -10.27891  -1.19393  -1.14984
 Alpha  occ. eigenvalues --   -1.13077  -1.13002  -1.11273  -1.10416  -1.09241
 Alpha  occ. eigenvalues --   -1.08965  -1.08346  -1.04992  -1.04510  -1.02416
 Alpha  occ. eigenvalues --   -1.00833  -1.00452  -0.99478  -0.98398  -0.96948
 Alpha  occ. eigenvalues --   -0.96473  -0.96384  -0.92667  -0.90997  -0.87433
 Alpha  occ. eigenvalues --   -0.85883  -0.83900  -0.83891  -0.83444  -0.82305
 Alpha  occ. eigenvalues --   -0.82294  -0.78812  -0.76788  -0.74615  -0.74406
 Alpha  occ. eigenvalues --   -0.73465  -0.73271  -0.72892  -0.71050  -0.70208
 Alpha  occ. eigenvalues --   -0.67166  -0.66598  -0.66439  -0.66301  -0.64349
 Alpha  occ. eigenvalues --   -0.64087  -0.63619  -0.62721  -0.62624  -0.61502
 Alpha  occ. eigenvalues --   -0.60485  -0.60335  -0.60165  -0.59433  -0.59305
 Alpha  occ. eigenvalues --   -0.59176  -0.58117  -0.56756  -0.56469  -0.56283
 Alpha  occ. eigenvalues --   -0.55906  -0.55512  -0.55251  -0.54676  -0.54262
 Alpha  occ. eigenvalues --   -0.53926  -0.53508  -0.53175  -0.52985  -0.52791
 Alpha  occ. eigenvalues --   -0.52478  -0.52255  -0.51762  -0.50743  -0.50205
 Alpha  occ. eigenvalues --   -0.50024  -0.49549  -0.49357  -0.48869  -0.48728
 Alpha  occ. eigenvalues --   -0.48668  -0.48341  -0.48109  -0.47570  -0.47266
 Alpha  occ. eigenvalues --   -0.46909  -0.45604  -0.44884  -0.44451  -0.43827
 Alpha  occ. eigenvalues --   -0.41118  -0.40659  -0.39391  -0.37626  -0.37550
 Alpha  occ. eigenvalues --   -0.37167  -0.37121  -0.36808  -0.35930  -0.34627
 Alpha  occ. eigenvalues --   -0.34160  -0.33606  -0.33445  -0.33147  -0.32792
 Alpha  occ. eigenvalues --   -0.32530  -0.32296  -0.31941  -0.31703  -0.30874
 Alpha  occ. eigenvalues --   -0.30426  -0.29565  -0.25861  -0.24956
 Alpha virt. eigenvalues --    0.03076   0.04287   0.07249   0.07985   0.08629
 Alpha virt. eigenvalues --    0.09440   0.09850   0.10668   0.11080   0.11572
 Alpha virt. eigenvalues --    0.12708   0.14163   0.14342   0.14695   0.15058

 Mulliken charges:
               1
     1  N   -0.312960
     2  C    0.180903
     3  C    0.049539
     4  N   -0.260395
     5  C    0.135246
     6  H    0.026369
     7  N   -0.288266
     8  C    0.136150
     9  H    0.009256
    10  N   -0.291499
    11  C    0.247497
    12  C    0.116319
    13  N   -0.055160
    14  H    0.109610
    15  H    0.085953
    16  H    0.025252
    17  H    0.031835
    18  H    0.026384
    19  N   -0.306350
    20  C    0.244072
    21  C    0.179939
    22  N   -0.088413
    23  H    0.111141
    24  H    0.112751
    25  N   -0.302968
    26  C    0.215917
    27  N   -0.138754
    28  H    0.122171
    29  C    0.165087
    30  O   -0.321431
    31  C    0.007128
    32  N   -0.225626
    33  C    0.130104
    34  H    0.022003
    35  H    0.030649
    36  H    0.027351
    37  H    0.023578
    38  H    0.062732
    39  H    0.058187
    40  H    0.069605
    41  H    0.029676
    42  C   -0.112836
    43  O   -0.265972
    44  C    0.168376
    45  H    0.133408
    46  N   -0.123808
    47  O   -0.342968
    48  C    0.342966
    49  H    0.047774
    50  C    0.169380
    51  C    0.038992
    52  N   -0.285115
    53  H    0.036942
    54  H    0.033658
    55  H    0.027110
    56  H    0.126107
    57  H    0.116097
    58  N   -0.062208
    59  C    0.085131
    60  C    0.247612
    61  N   -0.277411
    62  H    0.038014
    63  C    0.165836
    64  N   -0.299827
    65  H    0.034475
    66  C    0.133589
    67  N   -0.264019
    68  C    0.024222
    69  C    0.176183
    70  N   -0.312289
 Sum of Mulliken charges =  -0.00000

 Dipole moment (field-independent basis, Debye):
    X=              7.8917    Y=              5.9747    Z=              2.6598  Tot=             10.2494
 Quadrupole moment (field-independent basis, Debye-Ang):
   XX=           -151.6545   YY=           -220.0112   ZZ=           -254.8875
   XY=              1.6611   XZ=              3.3728   YZ=             -9.0880

 Normal termination of Gaussian 16 at Wed Jan 24 04:18:01 2018.
