 Gaussian 16, Revision A.03,
 Gaussian 16:  EM64L-G16RevA.03 25-Dec-2016

 ---------------------------------------
 #p wb97xd/cc-pvdz sp scf=(maxcycles=20)
 ---------------------------------------

 ------------------
 Base pair stacking
 ------------------
 Symbolic Z-matrix:
 Charge =  0 Multiplicity = 1

                         Standard orientation:
 ---------------------------------------------------------------------
 Center     Atomic      Atomic             Coordinates (Angstroms)
 Number     Number       Type             X           Y           Z
 ---------------------------------------------------------------------
      1          7           0        5.792459   -1.616622   -1.045394
      2          6           0        7.178196   -1.124323   -0.921379
      3          6           0        3.603781   -1.723410   -1.234024
      4          7           0        4.055643   -3.034877   -1.209452
      5          6           0        5.356153   -2.918056   -1.096780
      6          1           0        6.051854   -3.756131   -1.046214
      7          7           0        2.212526    0.178591   -1.332716
      8          6           0        3.329189    0.906563   -1.229219
      9          1           0        3.182464    1.985791   -1.230156
     10          7           0        4.593931    0.503436   -1.125210
     11          6           0        4.662851   -0.838059   -1.133766
     12          6           0        2.315356   -1.168426   -1.338419
     13          7           0        1.201817   -1.896820   -1.441654
     14          1           0        1.230623   -2.896979   -1.449964
     15          1           0        0.301338   -1.467843   -1.514167
     16          1           0        7.719224   -1.448386   -1.697563
     17          1           0        7.177925   -0.124818   -0.910634
     18          1           0        7.580378   -1.465004   -0.071562
     19          7           0        3.697695    2.449349    1.381106
     20          6           0        2.354298    2.183976    1.267411
     21          6           0        4.339430    3.746594    1.087799
     22          7           0       -0.864314    3.234836    0.494120
     23          1           0       -1.784134    2.843799    0.478440
     24          1           0       -0.774077    4.193338    0.222382
     25          7           0        1.402493    3.056692    0.871843
     26          6           0        0.200933    2.507344    0.862806
     27          7           0       -0.051351    1.203290    1.213944
     28          1           0       -1.001828    0.868318    1.177226
     29          6           0        0.912525    0.287523    1.624025
     30          8           0        0.579138   -0.866832    1.919087
     31          6           0        2.208412    0.863136    1.638776
     32          7           0        3.435520    0.310409    1.978769
     33          6           0        4.287075    1.285594    1.811178
     34          1           0        5.360583    1.209749    1.987525
     35          1           0        5.014340    3.629499    0.360073
     36          1           0        3.644122    4.401099    0.793792
     37          1           0        4.792254    4.089798    1.909979
     38          1           0       -5.830575   -0.363564    0.168067
     39          1           0       -6.032611   -0.139318    1.904023
     40          1           0       -4.840921    0.818836    1.024728
     41          1           0       -3.995661   -4.496903    1.809789
     42          6           0       -3.709400   -3.450046    1.707868
     43          8           0       -1.395366   -3.860461    2.030203
     44          6           0       -2.329837   -3.087146    1.821554
     45          1           0       -1.113272   -1.442970    1.750744
     46          7           0       -2.076714   -1.737993    1.676723
     47          8           0       -2.672717    0.425402    1.327899
     48          6           0       -2.993865   -0.744467    1.441640
     49          1           0       -5.688940   -2.727256    1.384116
     50          6           0       -4.627169   -2.503564    1.478788
     51          6           0       -5.318673   -0.147133    1.093911
     52          7           0       -4.302996   -1.173415    1.344685
     53          1           0       -4.598999    4.148702   -2.056365
     54          1           0       -3.408443    3.956260   -0.957433
     55          1           0       -4.970187    3.842205   -0.496974
     56          1           0       -2.284231   -2.901605   -2.035027
     57          1           0       -3.905368   -2.462780   -2.334091
     58          7           0       -2.983177   -2.186811   -2.060907
     59          6           0       -2.699168   -0.921522   -1.745351
     60          6           0       -3.199804    1.380768   -1.412866
     61          7           0       -1.952547    1.722502   -1.049557
     62          1           0       -0.118120    0.847457   -0.785352
     63          6           0       -1.152730    0.658155   -1.068248
     64          7           0       -1.435277   -0.609927   -1.384007
     65          1           0       -6.336222    1.799814   -2.075783
     66          6           0       -5.334045    1.401049   -1.915893
     67          7           0       -4.996302    0.145631   -2.081816
     68          6           0       -3.645597    0.119031   -1.766159
     69          6           0       -4.320290    3.653723   -1.233377
     70          7           0       -4.295933    2.204614   -1.511725
 ---------------------------------------------------------------------

 SCF Done:  E(RwB97XD) =  -2048.71064136     A.U. after   15 cycles

 The electronic state is 1-A.
 Alpha  occ. eigenvalues --  -19.25476 -19.21614 -19.20272 -14.52920 -14.52105
 Alpha  occ. eigenvalues --  -14.48748 -14.48619 -14.48118 -14.47496 -14.46241
 Alpha  occ. eigenvalues --  -14.45794 -14.44778 -14.44511 -14.43910 -14.42627
 Alpha  occ. eigenvalues --  -14.41409 -14.41362 -14.41069 -14.40344 -14.40254
 Alpha  occ. eigenvalues --  -10.45103 -10.40367 -10.40275 -10.39748 -10.38295
 Alpha  occ. eigenvalues --  -10.37748 -10.37513 -10.37443 -10.35745 -10.35592
 Alpha  occ. eigenvalues --  -10.34713 -10.34544 -10.34072 -10.33642 -10.33363
 Alpha  occ. eigenvalues --  -10.33117 -10.32834 -10.32775 -10.31013 -10.30831
 Alpha  occ. eigenvalues --  -10.30422 -10.28550 -10.27449  -1.19188  -1.15571
 Alpha  occ. eigenvalues --   -1.12794  -1.12656  -1.11326  -1.10100  -1.09611
 Alpha  occ. eigenvalues --   -1.08989  -1.07985  -1.05194  -1.05120  -1.02129
 Alpha  occ. eigenvalues --   -1.01416  -1.00650  -0.98928  -0.98093  -0.97146
 Alpha  occ. eigenvalues --   -0.96919  -0.96057  -0.92859  -0.90736  -0.88044
 Alpha  occ. eigenvalues --   -0.86470  -0.83983  -0.83504  -0.83203  -0.82376
 Alpha  occ. eigenvalues --   -0.81982  -0.78562  -0.77378  -0.75406  -0.74052
 Alpha  occ. eigenvalues --   -0.73086  -0.73030  -0.72943  -0.71203  -0.70834
 Alpha  occ. eigenvalues --   -0.67290  -0.66750  -0.66462  -0.66158  -0.64747
 Alpha  occ. eigenvalues --   -0.64088  -0.63340  -0.62902  -0.62561  -0.61137
 Alpha  occ. eigenvalues --   -0.60944  -0.60677  -0.60662  -0.59835  -0.59286
 Alpha  occ. eigenvalues --   -0.59060  -0.57974  -0.57075  -0.56482  -0.56208
 Alpha  occ. eigenvalues --   -0.55870  -0.55691  -0.55525  -0.54896  -0.54434
 Alpha  occ. eigenvalues --   -0.53819  -0.53547  -0.53327  -0.53172  -0.52715
 Alpha  occ. eigenvalues --   -0.52438  -0.52007  -0.51840  -0.50964  -0.50269
 Alpha  occ. eigenvalues --   -0.49799  -0.49616  -0.49386  -0.49066  -0.48852
 Alpha  occ. eigenvalues --   -0.48360  -0.48038  -0.47809  -0.47139  -0.46978
 Alpha  occ. eigenvalues --   -0.46711  -0.45573  -0.44703  -0.44634  -0.43561
 Alpha  occ. eigenvalues --   -0.41377  -0.40981  -0.39308  -0.38199  -0.37941
 Alpha  occ. eigenvalues --   -0.37464  -0.36767  -0.36684  -0.35868  -0.34689
 Alpha  occ. eigenvalues --   -0.34401  -0.33697  -0.33646  -0.32790  -0.32247
 Alpha  occ. eigenvalues --   -0.32123  -0.31887  -0.31705  -0.31431  -0.30825
 Alpha  occ. eigenvalues --   -0.30562  -0.30019  -0.25958  -0.24221
 Alpha virt. eigenvalues --    0.03248   0.03656   0.06794   0.07686   0.08719
 Alpha virt. eigenvalues --    0.09564   0.09801   0.10522   0.11290   0.11842
 Alpha virt. eigenvalues --    0.12530   0.13897   0.14339   0.14967   0.15110

 Mulliken charges:
               1
     1  N   -0.314783
     2  C    0.181353
     3  C    0.052827
     4  N   -0.262100
     5  C    0.136516
     6  H    0.026636
     7  N   -0.288062
     8  C    0.148559
     9  H    0.008637
    10  N   -0.287481
    11  C    0.258562
    12  C    0.107965
    13  N   -0.059252
    14  H    0.107349
    15  H    0.083306
    16  H    0.024927
    17  H    0.029940
    18  H    0.028162
    19  N   -0.287998
    20  C    0.204298
    21  C    0.179841
    22  N   -0.064779
    23  H    0.114419
    24  H    0.105760
    25  N   -0.297721
    26  C    0.187887
    27  N   -0.152393
    28  H    0.128456
    29  C    0.171784
    30  O   -0.324100
    31  C    0.009638
    32  N   -0.221855
    33  C    0.131863
    34  H    0.015450
    35  H    0.028840
    36  H    0.026421
    37  H    0.023506
    38  H    0.064225
    39  H    0.057114
    40  H    0.065463
    41  H    0.029262
    42  C   -0.112746
    43  O   -0.263861
    44  C    0.175448
    45  H    0.131434
    46  N   -0.125624
    47  O   -0.337592
    48  C    0.338986
    49  H    0.046068
    50  C    0.166849
    51  C    0.039794
    52  N   -0.286332
    53  H    0.038161
    54  H    0.028964
    55  H    0.031540
    56  H    0.122194
    57  H    0.118127
    58  N   -0.062000
    59  C    0.087539
    60  C    0.274272
    61  N   -0.309340
    62  H    0.064101
    63  C    0.154061
    64  N   -0.297088
    65  H    0.036876
    66  C    0.128274
    67  N   -0.258184
    68  C    0.016893
    69  C    0.182445
    70  N   -0.307700
 Sum of Mulliken charges =  -0.00000

 Dipole moment (field-independent basis, Debye):
    X=             -7.9876    Y=              5.9183    Z=             -3.6177  Tot=             10.5790
 Quadrupole moment (field-independent basis, Debye-Ang):
   XX=           -152.8441   YY=           -222.0858   ZZ=           -256.6099
   XY=             -1.3905   XZ=             -1.1341   YZ=             12.2774

 Normal termination of Gaussian 16 at Tue Jan 23 23:38:05 2018.
