 Gaussian 16, Revision A.03,
 Gaussian 16:  EM64L-G16RevA.03 25-Dec-2016

 ---------------------------------------
 #p wb97xd/cc-pvdz sp scf=(maxcycles=20)
 ---------------------------------------

 ------------------
 Base pair stacking
 ------------------
 Symbolic Z-matrix:
 Charge =  0 Multiplicity = 1

                         Standard orientation:
 ---------------------------------------------------------------------
 Center     Atomic      Atomic             Coordinates (Angstroms)
 Number     Number       Type             X           Y           Z
 ---------------------------------------------------------------------
      1          7           0       -7.221070   -1.428568    0.056846
      2          6           0       -8.606027   -0.919189    0.036063
      3          6           0       -5.045956   -1.606804    0.329611
      4          7           0       -5.470499   -2.815119   -0.203748
      5          6           0       -6.763939   -2.659365   -0.346738
      6          1           0       -7.439305   -3.416929   -0.745400
      7          7           0       -3.699524    0.119178    1.207716
      8          6           0       -4.821646    0.838948    1.309469
      9          1           0       -4.695807    1.841364    1.716400
     10          7           0       -6.070003    0.507929    0.985565
     11          6           0       -6.113784   -0.742147    0.495858
     12          6           0       -3.776877   -1.134847    0.711219
     13          7           0       -2.657851   -1.854900    0.608853
     14          1           0       -2.668055   -2.787724    0.246968
     15          1           0       -1.771636   -1.486683    0.890259
     16          1           0       -9.186236   -1.503921    0.603182
     17          1           0       -8.624128    0.014044    0.393660
     18          1           0       -8.950109   -0.921280   -0.902871
     19          7           0       -1.992969    2.746264   -1.812305
     20          6           0       -0.678445    2.415878   -1.586639
     21          6           0       -2.545464    4.115504   -1.787299
     22          7           0        2.579720    3.369950   -0.854625
     23          1           0        3.466289    2.927069   -0.723868
     24          1           0        2.552070    4.365722   -0.763043
     25          7           0        0.321282    3.279620   -1.306412
     26          6           0        1.476918    2.661217   -1.139976
     27          7           0        1.642932    1.301085   -1.239899
     28          1           0        2.563496    0.914957   -1.096953
     29          6           0        0.628468    0.393279   -1.527316
     30          8           0        0.884516   -0.815283   -1.594824
     31          6           0       -0.618973    1.042787   -1.708729
     32          7           0       -1.870959    0.521644   -2.005071
     33          6           0       -2.652195    1.566263   -2.056550
     34          1           0       -3.721197    1.532305   -2.269545
     35          1           0       -3.253451    4.178263   -1.084718
     36          1           0       -1.814059    4.764044   -1.580651
     37          1           0       -2.940753    4.333557   -2.678929
     38          1           0        7.245555   -0.436381    0.353884
     39          1           0        7.527302   -0.545076   -1.382043
     40          1           0        6.379786    0.634967   -0.747947
     41          1           0        5.165805   -4.665586   -0.613070
     42          6           0        4.955689   -3.600730   -0.713851
     43          8           0        2.630655   -3.905692   -1.072115
     44          6           0        3.612461   -3.172217   -0.958693
     45          1           0        2.521439   -1.464198   -1.242717
     46          7           0        3.456556   -1.805225   -1.069597
     47          8           0        4.200664    0.340302   -1.083167
     48          6           0        4.436724   -0.849740   -0.970341
     49          1           0        6.970861   -2.966469   -0.426503
     50          6           0        5.933143   -2.692536   -0.612073
     51          6           0        6.785626   -0.357518   -0.619931
     52          7           0        5.705389   -1.341340   -0.733650
     53          1           0        2.979771    3.514316    3.765512
     54          1           0        1.860942    3.745190    2.600605
     55          1           0        3.449309    3.801916    2.229209
     56          1           0        0.804964   -3.022704    1.008143
     57          1           0        2.396673   -2.731862    1.548493
     58          7           0        1.487392   -2.370693    1.338778
     59          6           0        1.198745   -1.076897    1.493506
     60          6           0        1.674468    1.183875    2.062993
     61          7           0        0.444897    1.640786    1.773494
     62          1           0       -1.353459    0.932467    1.091733
     63          6           0       -0.334216    0.647817    1.349360
     64          7           0       -0.046978   -0.648662    1.193701
     65          1           0        4.757093    1.315786    3.028513
     66          6           0        3.774030    1.008262    2.670791
     67          7           0        3.450918   -0.218579    2.341929
     68          6           0        2.122268   -0.121220    1.954714
     69          6           0        2.760238    3.358355    2.802458
     70          7           0        2.746857    1.908683    2.526297
 ---------------------------------------------------------------------

 SCF Done:  E(RwB97XD) =  -2048.74608917     A.U. after   15 cycles

 The electronic state is 1-A.
 Alpha  occ. eigenvalues --  -19.26103 -19.22572 -19.20980 -14.52724 -14.50980
 Alpha  occ. eigenvalues --  -14.49024 -14.48979 -14.48241 -14.47514 -14.47353
 Alpha  occ. eigenvalues --  -14.45885 -14.44017 -14.42424 -14.42384 -14.42254
 Alpha  occ. eigenvalues --  -14.42179 -14.41707 -14.41090 -14.40994 -14.40312
 Alpha  occ. eigenvalues --  -10.45779 -10.41693 -10.40621 -10.38611 -10.38125
 Alpha  occ. eigenvalues --  -10.37921 -10.36556 -10.35580 -10.35557 -10.35469
 Alpha  occ. eigenvalues --  -10.34620 -10.34357 -10.33941 -10.33617 -10.33471
 Alpha  occ. eigenvalues --  -10.33270 -10.32803 -10.31400 -10.31151 -10.30989
 Alpha  occ. eigenvalues --  -10.30919 -10.28790 -10.28428  -1.19686  -1.13727
 Alpha  occ. eigenvalues --   -1.13566  -1.13505  -1.11614  -1.10862  -1.09622
 Alpha  occ. eigenvalues --   -1.09057  -1.07256  -1.05154  -1.02940  -1.02776
 Alpha  occ. eigenvalues --   -1.00558  -1.00383  -0.99382  -0.98871  -0.97176
 Alpha  occ. eigenvalues --   -0.96807  -0.94867  -0.92781  -0.91365  -0.86033
 Alpha  occ. eigenvalues --   -0.84489  -0.84378  -0.84167  -0.83974  -0.82709
 Alpha  occ. eigenvalues --   -0.82528  -0.79201  -0.75286  -0.74933  -0.74131
 Alpha  occ. eigenvalues --   -0.73717  -0.73089  -0.72990  -0.71252  -0.68655
 Alpha  occ. eigenvalues --   -0.67829  -0.66881  -0.66471  -0.65017  -0.64779
 Alpha  occ. eigenvalues --   -0.64064  -0.63012  -0.62902  -0.62408  -0.62219
 Alpha  occ. eigenvalues --   -0.60319  -0.59838  -0.59829  -0.58995  -0.58829
 Alpha  occ. eigenvalues --   -0.58552  -0.57947  -0.56825  -0.56619  -0.56612
 Alpha  occ. eigenvalues --   -0.56272  -0.55481  -0.54729  -0.54564  -0.53964
 Alpha  occ. eigenvalues --   -0.53811  -0.53639  -0.53232  -0.52771  -0.52358
 Alpha  occ. eigenvalues --   -0.52081  -0.51843  -0.51231  -0.50955  -0.50488
 Alpha  occ. eigenvalues --   -0.50356  -0.49777  -0.49262  -0.49211  -0.48941
 Alpha  occ. eigenvalues --   -0.48547  -0.48409  -0.47994  -0.47778  -0.47477
 Alpha  occ. eigenvalues --   -0.47145  -0.45310  -0.45180  -0.44372  -0.43005
 Alpha  occ. eigenvalues --   -0.41363  -0.39716  -0.39133  -0.37685  -0.37560
 Alpha  occ. eigenvalues --   -0.37376  -0.36379  -0.35926  -0.35841  -0.34983
 Alpha  occ. eigenvalues --   -0.33746  -0.33736  -0.33692  -0.33082  -0.32925
 Alpha  occ. eigenvalues --   -0.32502  -0.32313  -0.32228  -0.32088  -0.31190
 Alpha  occ. eigenvalues --   -0.30502  -0.28157  -0.25963  -0.25768
 Alpha virt. eigenvalues --    0.02701   0.05673   0.07782   0.08117   0.08528
 Alpha virt. eigenvalues --    0.09293   0.09339   0.10792   0.11550   0.12366
 Alpha virt. eigenvalues --    0.12733   0.13832   0.14391   0.14739   0.15871

 Mulliken charges:
               1
     1  N   -0.310690
     2  C    0.180911
     3  C    0.028953
     4  N   -0.258018
     5  C    0.132785
     6  H    0.027095
     7  N   -0.289671
     8  C    0.128458
     9  H    0.011491
    10  N   -0.288827
    11  C    0.238954
    12  C    0.119457
    13  N   -0.049942
    14  H    0.108396
    15  H    0.089750
    16  H    0.026152
    17  H    0.035265
    18  H    0.025575
    19  N   -0.309881
    20  C    0.250547
    21  C    0.181904
    22  N   -0.122722
    23  H    0.115470
    24  H    0.117976
    25  N   -0.299499
    26  C    0.233492
    27  N   -0.128376
    28  H    0.118322
    29  C    0.167426
    30  O   -0.323130
    31  C   -0.013054
    32  N   -0.220050
    33  C    0.132044
    34  H    0.031423
    35  H    0.031077
    36  H    0.028159
    37  H    0.024937
    38  H    0.061331
    39  H    0.060765
    40  H    0.073284
    41  H    0.032459
    42  C   -0.107698
    43  O   -0.275181
    44  C    0.157136
    45  H    0.136343
    46  N   -0.132687
    47  O   -0.353322
    48  C    0.368126
    49  H    0.049594
    50  C    0.178512
    51  C    0.042174
    52  N   -0.296524
    53  H    0.030506
    54  H    0.044093
    55  H    0.010794
    56  H    0.124514
    57  H    0.115698
    58  N   -0.044558
    59  C    0.100354
    60  C    0.239651
    61  N   -0.264694
    62  H    0.038896
    63  C    0.156728
    64  N   -0.298787
    65  H    0.025629
    66  C    0.129004
    67  N   -0.267926
    68  C    0.021597
    69  C    0.180863
    70  N   -0.308834
 Sum of Mulliken charges =  -0.00000

 Dipole moment (field-independent basis, Debye):
    X=              8.2027    Y=              5.7016    Z=              1.5064  Tot=             10.1026
 Quadrupole moment (field-independent basis, Debye-Ang):
   XX=           -142.9526   YY=           -220.2945   ZZ=           -249.1326
   XY=              5.1209   XZ=             15.1417   YZ=             -5.6732

 Normal termination of Gaussian 16 at Tue Jan 23 23:14:56 2018.
