 Gaussian 16, Revision A.03,
 Gaussian 16:  EM64L-G16RevA.03 25-Dec-2016

 ---------------------------------------
 #p wb97xd/cc-pvdz sp scf=(maxcycles=20)
 ---------------------------------------

 ------------------
 Base pair stacking
 ------------------
 Symbolic Z-matrix:
 Charge =  0 Multiplicity = 1

                         Standard orientation:
 ---------------------------------------------------------------------
 Center     Atomic      Atomic             Coordinates (Angstroms)
 Number     Number       Type             X           Y           Z
 ---------------------------------------------------------------------
      1          7           0       -6.964326   -1.474195    0.225238
      2          6           0       -8.347575   -0.960703    0.194148
      3          6           0       -4.787280   -1.648368    0.484880
      4          7           0       -5.221451   -2.878507    0.012679
      5          6           0       -6.515670   -2.724336   -0.124853
      6          1           0       -7.197682   -3.496916   -0.481115
      7          7           0       -3.425999    0.111219    1.268287
      8          6           0       -4.544442    0.839524    1.347219
      9          1           0       -4.410961    1.859306    1.705644
     10          7           0       -5.797140    0.498832    1.051263
     11          6           0       -5.850276   -0.772551    0.620937
     12          6           0       -3.512789   -1.164287    0.831672
     13          7           0       -2.397437   -1.892883    0.752180
     14          1           0       -2.414600   -2.841526    0.434364
     15          1           0       -1.507164   -1.515540    1.007451
     16          1           0       -8.924251   -1.515962    0.793571
     17          1           0       -8.358763   -0.011737    0.507937
     18          1           0       -8.700940   -1.005207   -0.740273
     19          7           0       -2.306639    2.726397   -1.778274
     20          6           0       -0.986804    2.406305   -1.569404
     21          6           0       -2.876814    4.086726   -1.706749
     22          7           0        2.262288    3.379311   -0.822134
     23          1           0        3.155200    2.944207   -0.709750
     24          1           0        2.222121    4.371186   -0.698487
     25          7           0        0.002972    3.273743   -1.266176
     26          6           0        1.167384    2.665612   -1.125020
     27          7           0        1.350617    1.311689   -1.269344
     28          1           0        2.276848    0.933352   -1.143110
     29          6           0        0.346637    0.400252   -1.581096
     30          8           0        0.618085   -0.802030   -1.688566
     31          6           0       -0.910057    1.038742   -1.735799
     32          7           0       -2.156623    0.510897   -2.042967
     33          6           0       -2.951658    1.546230   -2.057261
     34          1           0       -4.021178    1.505032   -2.266303
     35          1           0       -3.582016    4.117578   -0.999263
     36          1           0       -2.152887    4.737898   -1.482758
     37          1           0       -3.279388    4.328012   -2.589091
     38          1           0        6.983352   -0.401924    0.241979
     39          1           0        7.257764   -0.451184   -1.497822
     40          1           0        6.098166    0.692676   -0.820866
     41          1           0        4.954083   -4.625031   -0.850738
     42          6           0        4.729590   -3.560346   -0.916286
     43          8           0        2.406963   -3.884312   -1.273447
     44          6           0        3.379678   -3.141962   -1.141049
     45          1           0        2.265071   -1.440253   -1.365029
     46          7           0        3.205407   -1.774294   -1.207258
     47          8           0        3.921410    0.380198   -1.155346
     48          6           0        4.173534   -0.809638   -1.081888
     49          1           0        6.737757   -2.909098   -0.618003
     50          6           0        5.695630   -2.643067   -0.789898
     51          6           0        6.517551   -0.297960   -0.726668
     52          7           0        5.449674   -1.291795   -0.866954
     53          1           0        3.290514    3.594797    3.599692
     54          1           0        2.161056    3.775610    2.436195
     55          1           0        3.745864    3.808480    2.047139
     56          1           0        1.064909   -3.054867    1.171899
     57          1           0        2.662933   -2.745614    1.682574
     58          7           0        1.752931   -2.390916    1.465066
     59          6           0        1.470501   -1.090145    1.562001
     60          6           0        1.960012    1.192780    2.020630
     61          7           0        0.729300    1.640685    1.722076
     62          1           0       -1.078275    0.908650    1.091648
     63          6           0       -0.057559    0.632181    1.352377
     64          7           0        0.223432   -0.671297    1.254649
     65          1           0        5.052498    1.357042    2.948930
     66          6           0        4.064845    1.037166    2.615529
     67          7           0        3.734061   -0.202356    2.347484
     68          6           0        2.402001   -0.117760    1.969072
     69          6           0        3.060901    3.394965    2.647148
     70          7           0        3.039542    1.934045    2.439132
 ---------------------------------------------------------------------

 SCF Done:  E(RwB97XD) =  -2048.74530277     A.U. after   15 cycles

 The electronic state is 1-A.
 Alpha  occ. eigenvalues --  -19.26029 -19.22421 -19.20787 -14.52638 -14.51366
 Alpha  occ. eigenvalues --  -14.48952 -14.48879 -14.48122 -14.47302 -14.47092
 Alpha  occ. eigenvalues --  -14.46436 -14.44387 -14.42764 -14.42720 -14.42261
 Alpha  occ. eigenvalues --  -14.42174 -14.41617 -14.41050 -14.40896 -14.40258
 Alpha  occ. eigenvalues --  -10.45693 -10.41521 -10.40498 -10.38428 -10.38390
 Alpha  occ. eigenvalues --  -10.38083 -10.36956 -10.35857 -10.35501 -10.35464
 Alpha  occ. eigenvalues --  -10.34525 -10.34273 -10.34251 -10.33544 -10.33358
 Alpha  occ. eigenvalues --  -10.33228 -10.33173 -10.31373 -10.31347 -10.31112
 Alpha  occ. eigenvalues --  -10.30924 -10.28705 -10.28309  -1.19610  -1.14029
 Alpha  occ. eigenvalues --   -1.13431  -1.13409  -1.11536  -1.10728  -1.09531
 Alpha  occ. eigenvalues --   -1.08859  -1.07726  -1.05093  -1.03311  -1.02761
 Alpha  occ. eigenvalues --   -1.00515  -1.00208  -0.99784  -0.98718  -0.97113
 Alpha  occ. eigenvalues --   -0.96692  -0.95313  -0.92731  -0.91304  -0.86430
 Alpha  occ. eigenvalues --   -0.84879  -0.84274  -0.84105  -0.83869  -0.82613
 Alpha  occ. eigenvalues --   -0.82469  -0.79122  -0.75712  -0.74806  -0.73974
 Alpha  occ. eigenvalues --   -0.73618  -0.73406  -0.73027  -0.71195  -0.69097
 Alpha  occ. eigenvalues --   -0.67672  -0.66790  -0.66420  -0.65446  -0.64691
 Alpha  occ. eigenvalues --   -0.63967  -0.63006  -0.62871  -0.62716  -0.62066
 Alpha  occ. eigenvalues --   -0.60304  -0.59811  -0.59755  -0.59242  -0.58965
 Alpha  occ. eigenvalues --   -0.58703  -0.58330  -0.56773  -0.56611  -0.56554
 Alpha  occ. eigenvalues --   -0.56176  -0.55465  -0.54714  -0.54615  -0.54170
 Alpha  occ. eigenvalues --   -0.53851  -0.53588  -0.53126  -0.52688  -0.52652
 Alpha  occ. eigenvalues --   -0.52307  -0.51868  -0.51624  -0.50896  -0.50358
 Alpha  occ. eigenvalues --   -0.50315  -0.49681  -0.49259  -0.49108  -0.48929
 Alpha  occ. eigenvalues --   -0.48541  -0.48435  -0.47893  -0.47781  -0.47598
 Alpha  occ. eigenvalues --   -0.47099  -0.45437  -0.45205  -0.44330  -0.43164
 Alpha  occ. eigenvalues --   -0.41304  -0.39633  -0.39476  -0.37566  -0.37421
 Alpha  occ. eigenvalues --   -0.37318  -0.36571  -0.36262  -0.35916  -0.34736
 Alpha  occ. eigenvalues --   -0.33718  -0.33631  -0.33578  -0.33132  -0.32886
 Alpha  occ. eigenvalues --   -0.32661  -0.32529  -0.32257  -0.31986  -0.31098
 Alpha  occ. eigenvalues --   -0.30471  -0.28604  -0.25903  -0.25644
 Alpha virt. eigenvalues --    0.02750   0.05196   0.07802   0.07899   0.08429
 Alpha virt. eigenvalues --    0.09353   0.09467   0.10849   0.11464   0.12099
 Alpha virt. eigenvalues --    0.12677   0.13849   0.14577   0.14702   0.15312

 Mulliken charges:
               1
     1  N   -0.310995
     2  C    0.180873
     3  C    0.032862
     4  N   -0.258168
     5  C    0.132960
     6  H    0.026898
     7  N   -0.289726
     8  C    0.128736
     9  H    0.010625
    10  N   -0.289762
    11  C    0.238956
    12  C    0.123199
    13  N   -0.052081
    14  H    0.109071
    15  H    0.089688
    16  H    0.025982
    17  H    0.034670
    18  H    0.025612
    19  N   -0.310731
    20  C    0.243277
    21  C    0.181337
    22  N   -0.121425
    23  H    0.115258
    24  H    0.116984
    25  N   -0.299275
    26  C    0.235928
    27  N   -0.126766
    28  H    0.115595
    29  C    0.156857
    30  O   -0.320395
    31  C   -0.000055
    32  N   -0.221779
    33  C    0.131466
    34  H    0.030530
    35  H    0.030675
    36  H    0.028149
    37  H    0.024698
    38  H    0.061868
    39  H    0.059947
    40  H    0.072612
    41  H    0.031630
    42  C   -0.112028
    43  O   -0.272847
    44  C    0.158711
    45  H    0.137200
    46  N   -0.129911
    47  O   -0.352043
    48  C    0.362689
    49  H    0.049389
    50  C    0.178523
    51  C    0.042504
    52  N   -0.293344
    53  H    0.032448
    54  H    0.043635
    55  H    0.014163
    56  H    0.126774
    57  H    0.114513
    58  N   -0.052479
    59  C    0.101706
    60  C    0.235855
    61  N   -0.261133
    62  H    0.049149
    63  C    0.150602
    64  N   -0.297731
    65  H    0.028020
    66  C    0.130811
    67  N   -0.268943
    68  C    0.021431
    69  C    0.176748
    70  N   -0.310194
 Sum of Mulliken charges =  -0.00000

 Dipole moment (field-independent basis, Debye):
    X=              8.0740    Y=              5.7645    Z=              1.8953  Tot=             10.1001
 Quadrupole moment (field-independent basis, Debye-Ang):
   XX=           -145.3344   YY=           -220.1646   ZZ=           -250.7147
   XY=              4.2294   XZ=             12.9861   YZ=             -6.5210

 Normal termination of Gaussian 16 at Tue Jan 23 18:15:07 2018.
