 Gaussian 16, Revision A.03,
 Gaussian 16:  EM64L-G16RevA.03 25-Dec-2016

 ---------------------------------------
 #p wb97xd/cc-pvdz sp scf=(maxcycles=20)
 ---------------------------------------

 ------------------
 Base pair stacking
 ------------------
 Symbolic Z-matrix:
 Charge =  0 Multiplicity = 1

                         Standard orientation:
 ---------------------------------------------------------------------
 Center     Atomic      Atomic             Coordinates (Angstroms)
 Number     Number       Type             X           Y           Z
 ---------------------------------------------------------------------
      1          7           0       -6.902312   -1.467708    0.303124
      2          6           0       -8.268218   -0.943259    0.110077
      3          6           0       -4.738538   -1.627562    0.663459
      4          7           0       -5.198012   -2.923522    0.478855
      5          6           0       -6.483222   -2.775355    0.269157
      6          1           0       -7.179360   -3.593594    0.082551
      7          7           0       -3.344263    0.233991    1.055300
      8          6           0       -4.441766    0.986736    0.927123
      9          1           0       -4.286326    2.058709    1.041056
     10          7           0       -5.696563    0.615865    0.680482
     11          6           0       -5.777580   -0.719371    0.557991
     12          6           0       -3.458862   -1.105930    0.926638
     13          7           0       -2.364452   -1.859018    1.054255
     14          1           0       -2.402509   -2.855068    0.966733
     15          1           0       -1.469688   -1.453495    1.241580
     16          1           0       -8.875941   -1.328578    0.804621
     17          1           0       -8.258378    0.052827    0.192732
     18          1           0       -8.599770   -1.197392   -0.798484
     19          7           0       -2.434466    2.537651   -1.694760
     20          6           0       -1.114124    2.242799   -1.454272
     21          6           0       -3.053524    3.869467   -1.540731
     22          7           0        2.066044    3.252565   -0.490615
     23          1           0        2.967994    2.837679   -0.374037
     24          1           0        1.986728    4.229521   -0.290650
     25          7           0       -0.168097    3.113206   -1.040194
     26          6           0        1.009741    2.532030   -0.896784
     27          7           0        1.245200    1.200486   -1.139764
     28          1           0        2.177897    0.842075   -1.003443
     29          6           0        0.286853    0.286500   -1.566442
     30          8           0        0.603668   -0.894229   -1.756848
     31          6           0       -0.983614    0.896150   -1.725000
     32          7           0       -2.197579    0.356426   -2.127339
     33          6           0       -3.026472    1.364418   -2.094385
     34          1           0       -4.084427    1.307094   -2.352694
     35          1           0       -3.787925    3.821324   -0.864608
     36          1           0       -2.362269    4.522571   -1.234344
     37          1           0       -3.427466    4.168526   -2.417975
     38          1           0        6.866473   -0.454098    0.476385
     39          1           0        7.213858   -0.354406   -1.248145
     40          1           0        5.988714    0.694690   -0.534149
     41          1           0        5.030349   -4.636174   -1.035374
     42          6           0        4.772275   -3.577145   -1.026143
     43          8           0        2.478841   -3.943045   -1.509273
     44          6           0        3.419180   -3.184011   -1.275975
     45          1           0        2.256891   -1.505129   -1.413040
     46          7           0        3.200867   -1.821520   -1.241182
     47          8           0        3.839621    0.342924   -0.987393
     48          6           0        4.129256   -0.840581   -0.997468
     49          1           0        6.742861   -2.890173   -0.589476
     50          6           0        5.700170   -2.643551   -0.785256
     51          6           0        6.437674   -0.286858   -0.500452
     52          7           0        5.411294   -1.298740   -0.765707
     53          1           0        3.415411    4.007404    2.713768
     54          1           0        2.320775    3.936857    1.505923
     55          1           0        3.914913    3.840010    1.169132
     56          1           0        1.049849   -2.971680    1.840874
     57          1           0        2.643500   -2.589141    2.314198
     58          7           0        1.750246   -2.273951    1.991756
     59          6           0        1.505001   -0.980439    1.773021
     60          6           0        2.051948    1.334130    1.699918
     61          7           0        0.843025    1.728474    1.267012
     62          1           0       -0.969865    0.911940    0.769708
     63          6           0        0.035324    0.680284    1.119286
     64          7           0        0.279073   -0.616015    1.337846
     65          1           0        5.124316    1.638382    2.659178
     66          6           0        4.135906    1.272677    2.379470
     67          7           0        3.774451    0.013054    2.398646
     68          6           0        2.455225    0.037986    1.969975
     69          6           0        3.203263    3.595143    1.827755
     70          7           0        3.142830    2.127126    1.966616
 ---------------------------------------------------------------------

 SCF Done:  E(RwB97XD) =  -2048.69717023     A.U. after   15 cycles

 The electronic state is 1-A.
 Alpha  occ. eigenvalues --  -19.25912 -19.22019 -19.20537 -14.52454 -14.51954
 Alpha  occ. eigenvalues --  -14.49231 -14.48669 -14.47934 -14.47222 -14.46516
 Alpha  occ. eigenvalues --  -14.46294 -14.44809 -14.43289 -14.42663 -14.42645
 Alpha  occ. eigenvalues --  -14.41912 -14.41807 -14.41445 -14.40662 -14.40630
 Alpha  occ. eigenvalues --  -10.45540 -10.41281 -10.40145 -10.38978 -10.38121
 Alpha  occ. eigenvalues --  -10.37823 -10.37438 -10.36239 -10.35899 -10.35353
 Alpha  occ. eigenvalues --  -10.34566 -10.34528 -10.34296 -10.33870 -10.33707
 Alpha  occ. eigenvalues --  -10.33632 -10.33132 -10.31846 -10.31319 -10.31122
 Alpha  occ. eigenvalues --  -10.30773 -10.29049 -10.28052  -1.19476  -1.14706
 Alpha  occ. eigenvalues --   -1.13240  -1.13043  -1.11831  -1.10515  -1.09343
 Alpha  occ. eigenvalues --   -1.08826  -1.08256  -1.05470  -1.03854  -1.02544
 Alpha  occ. eigenvalues --   -1.00948  -1.00924  -0.99659  -0.98433  -0.97429
 Alpha  occ. eigenvalues --   -0.96487  -0.95924  -0.93125  -0.91078  -0.87121
 Alpha  occ. eigenvalues --   -0.85692  -0.84408  -0.84047  -0.83713  -0.82755
 Alpha  occ. eigenvalues --   -0.82455  -0.78903  -0.76343  -0.74735  -0.74027
 Alpha  occ. eigenvalues --   -0.73776  -0.73404  -0.73378  -0.71564  -0.69771
 Alpha  occ. eigenvalues --   -0.67584  -0.66779  -0.66608  -0.66143  -0.64483
 Alpha  occ. eigenvalues --   -0.63809  -0.63708  -0.63165  -0.62781  -0.62253
 Alpha  occ. eigenvalues --   -0.60688  -0.60112  -0.59957  -0.59556  -0.59497
 Alpha  occ. eigenvalues --   -0.58902  -0.58454  -0.57141  -0.56875  -0.56784
 Alpha  occ. eigenvalues --   -0.55987  -0.55836  -0.55593  -0.54682  -0.54354
 Alpha  occ. eigenvalues --   -0.53691  -0.53446  -0.53174  -0.52863  -0.52568
 Alpha  occ. eigenvalues --   -0.52411  -0.52172  -0.52052  -0.51205  -0.50639
 Alpha  occ. eigenvalues --   -0.50094  -0.49634  -0.49444  -0.49102  -0.48765
 Alpha  occ. eigenvalues --   -0.48653  -0.48218  -0.48115  -0.47886  -0.47439
 Alpha  occ. eigenvalues --   -0.47366  -0.45659  -0.45482  -0.44018  -0.42784
 Alpha  occ. eigenvalues --   -0.41684  -0.39720  -0.39444  -0.37694  -0.37467
 Alpha  occ. eigenvalues --   -0.37151  -0.36823  -0.36630  -0.35832  -0.34726
 Alpha  occ. eigenvalues --   -0.34043  -0.33903  -0.33307  -0.33189  -0.32821
 Alpha  occ. eigenvalues --   -0.32566  -0.32234  -0.31977  -0.31764  -0.31385
 Alpha  occ. eigenvalues --   -0.30841  -0.28727  -0.26274  -0.25221
 Alpha virt. eigenvalues --    0.03068   0.04362   0.07371   0.07514   0.08436
 Alpha virt. eigenvalues --    0.09429   0.09578   0.10464   0.11335   0.12251
 Alpha virt. eigenvalues --    0.12795   0.13705   0.14327   0.14469   0.14858

 Mulliken charges:
               1
     1  N   -0.311784
     2  C    0.180804
     3  C    0.035689
     4  N   -0.259498
     5  C    0.134681
     6  H    0.028148
     7  N   -0.285376
     8  C    0.122611
     9  H    0.012405
    10  N   -0.287779
    11  C    0.242829
    12  C    0.123359
    13  N   -0.055766
    14  H    0.107802
    15  H    0.088324
    16  H    0.026333
    17  H    0.034565
    18  H    0.027004
    19  N   -0.307124
    20  C    0.223450
    21  C    0.181811
    22  N   -0.096973
    23  H    0.117468
    24  H    0.112133
    25  N   -0.274443
    26  C    0.186850
    27  N   -0.106021
    28  H    0.120173
    29  C    0.133533
    30  O   -0.317814
    31  C    0.012069
    32  N   -0.220394
    33  C    0.126408
    34  H    0.029794
    35  H    0.026428
    36  H    0.027523
    37  H    0.024580
    38  H    0.061629
    39  H    0.059768
    40  H    0.071078
    41  H    0.031355
    42  C   -0.113957
    43  O   -0.266296
    44  C    0.175677
    45  H    0.136230
    46  N   -0.137066
    47  O   -0.349989
    48  C    0.362338
    49  H    0.047857
    50  C    0.174235
    51  C    0.042149
    52  N   -0.293868
    53  H    0.031702
    54  H    0.041533
    55  H    0.008813
    56  H    0.123055
    57  H    0.115862
    58  N   -0.065975
    59  C    0.112259
    60  C    0.217521
    61  N   -0.259564
    62  H    0.070693
    63  C    0.150235
    64  N   -0.297953
    65  H    0.029949
    66  C    0.133013
    67  N   -0.265290
    68  C    0.028152
    69  C    0.174070
    70  N   -0.313016
 Sum of Mulliken charges =  -0.00000

 Dipole moment (field-independent basis, Debye):
    X=              7.3159    Y=              5.5101    Z=              3.3184  Tot=              9.7414
 Quadrupole moment (field-independent basis, Debye-Ang):
   XX=           -145.7141   YY=           -222.2748   ZZ=           -253.9202
   XY=              5.3933   XZ=             12.2519   YZ=            -10.7191

 Normal termination of Gaussian 16 at Tue Jan 23 17:52:11 2018.
