 Gaussian 16, Revision A.03,
 Gaussian 16:  EM64L-G16RevA.03 25-Dec-2016

 ---------------------------------------
 #p wb97xd/cc-pvdz sp scf=(maxcycles=20)
 ---------------------------------------

 ------------------
 Base pair stacking
 ------------------
 Symbolic Z-matrix:
 Charge =  0 Multiplicity = 1

                         Standard orientation:
 ---------------------------------------------------------------------
 Center     Atomic      Atomic             Coordinates (Angstroms)
 Number     Number       Type             X           Y           Z
 ---------------------------------------------------------------------
      1          7           0        4.262705   -1.903194   -1.887077
      2          6           0        5.653666   -1.474478   -2.130876
      3          6           0        2.080220   -1.919348   -1.615417
      4          7           0        2.502097   -3.230091   -1.446035
      5          6           0        3.800082   -3.167904   -1.616478
      6          1           0        4.475046   -4.022091   -1.555394
      7          7           0        0.735300    0.011565   -1.775783
      8          6           0        1.863302    0.683476   -2.028255
      9          1           0        1.740372    1.752947   -2.193726
     10          7           0        3.114452    0.234749   -2.106644
     11          6           0        3.154238   -1.089998   -1.887818
     12          6           0        0.808741   -1.320015   -1.559952
     13          7           0       -0.316155   -1.992466   -1.307780
     14          1           0       -0.308988   -2.979223   -1.142012
     15          1           0       -1.203905   -1.533097   -1.275967
     16          1           0        6.017636   -1.956528   -2.927959
     17          1           0        5.674910   -0.489528   -2.299835
     18          1           0        6.214933   -1.685868   -1.330698
     19          7           0        5.205679    2.366674    0.693045
     20          6           0        3.855253    2.158054    0.837545
     21          6           0        5.838680    3.657065    0.354055
     22          7           0        0.602369    3.374050    0.794768
     23          1           0       -0.320112    3.018251    0.941998
     24          1           0        0.683351    4.345021    0.568108
     25          7           0        2.887509    3.089329    0.695287
     26          6           0        1.682878    2.585341    0.896500
     27          7           0        1.442229    1.270247    1.212909
     28          1           0        0.488302    0.972869    1.349103
     29          6           0        2.422579    0.294617    1.364346
     30          8           0        2.098708   -0.864482    1.651258
     31          6           0        3.721947    0.821025    1.151230
     32          7           0        4.963693    0.202706    1.202617
     33          6           0        5.811365    1.155877    0.924899
     34          1           0        6.893470    1.029715    0.875819
     35          1           0        6.348431    3.565797   -0.500721
     36          1           0        5.131550    4.354633    0.246219
     37          1           0        6.462525    3.926861    1.086746
     38          1           0       -4.499013   -0.013205    1.264919
     39          1           0       -4.339735    0.099090    3.016115
     40          1           0       -3.301870    1.071677    1.972908
     41          1           0       -2.577879   -4.312152    2.252301
     42          6           0       -2.266881   -3.271729    2.157297
     43          8           0        0.042095   -3.785950    1.980263
     44          6           0       -0.876284   -2.967157    2.011284
     45          1           0        0.380602   -1.366696    1.794331
     46          7           0       -0.591495   -1.621220    1.899072
     47          8           0       -1.138626    0.580933    1.807626
     48          6           0       -1.487431   -0.581698    1.913907
     49          1           0       -4.233483   -2.457963    2.283976
     50          6           0       -3.164523   -2.279497    2.175303
     51          6           0       -3.802868    0.121003    2.079441
     52          7           0       -2.808975   -0.955791    2.058091
     53          1           0       -6.001863    4.169633   -1.834036
     54          1           0       -4.615176    4.103142   -0.976853
     55          1           0       -6.051175    4.156602   -0.202833
     56          1           0       -3.868536   -2.889496   -1.007529
     57          1           0       -5.507764   -2.419408   -1.052793
     58          7           0       -4.543999   -2.152150   -1.022064
     59          6           0       -4.176928   -0.869184   -1.001427
     60          6           0       -4.554161    1.480158   -0.994879
     61          7           0       -3.252545    1.809566   -0.953616
     62          1           0       -1.420184    0.892619   -0.905980
     63          6           0       -2.494262    0.715169   -0.939311
     64          7           0       -2.860017   -0.570671   -0.959936
     65          1           0       -7.751170    1.952249   -1.086535
     66          6           0       -6.745396    1.531972   -1.059761
     67          7           0       -6.473181    0.249953   -1.061356
     68          6           0       -5.087221    0.203157   -1.020428
     69          6           0       -5.569890    3.808713   -1.007512
     70          7           0       -5.631142    2.334235   -1.020497
 ---------------------------------------------------------------------

 SCF Done:  E(RwB97XD) =  -2048.74870179     A.U. after   15 cycles

 The electronic state is 1-A.
 Alpha  occ. eigenvalues --  -19.25201 -19.21265 -19.20568 -14.52682 -14.51651
 Alpha  occ. eigenvalues --  -14.49084 -14.49008 -14.48171 -14.47097 -14.46718
 Alpha  occ. eigenvalues --  -14.46588 -14.45615 -14.45085 -14.44922 -14.43028
 Alpha  occ. eigenvalues --  -14.42038 -14.41291 -14.41017 -14.40852 -14.40611
 Alpha  occ. eigenvalues --  -10.44736 -10.41190 -10.40651 -10.39389 -10.38188
 Alpha  occ. eigenvalues --  -10.38184 -10.37634 -10.37273 -10.36392 -10.35736
 Alpha  occ. eigenvalues --  -10.34433 -10.34098 -10.34016 -10.33678 -10.33599
 Alpha  occ. eigenvalues --  -10.33136 -10.33115 -10.33108 -10.31140 -10.30567
 Alpha  occ. eigenvalues --  -10.30088 -10.28407 -10.28207  -1.18734  -1.15497
 Alpha  occ. eigenvalues --   -1.13178  -1.12290  -1.10864  -1.10721  -1.10018
 Alpha  occ. eigenvalues --   -1.08612  -1.08481  -1.05484  -1.05245  -1.01729
 Alpha  occ. eigenvalues --   -1.01261  -1.00734  -0.99672  -0.98572  -0.97525
 Alpha  occ. eigenvalues --   -0.96771  -0.96534  -0.92946  -0.90443  -0.88065
 Alpha  occ. eigenvalues --   -0.86167  -0.84263  -0.83585  -0.82863  -0.82625
 Alpha  occ. eigenvalues --   -0.81830  -0.78221  -0.77527  -0.75355  -0.74690
 Alpha  occ. eigenvalues --   -0.73588  -0.72894  -0.72659  -0.71057  -0.70864
 Alpha  occ. eigenvalues --   -0.67385  -0.67326  -0.66281  -0.65903  -0.64701
 Alpha  occ. eigenvalues --   -0.64323  -0.63407  -0.62759  -0.62558  -0.61780
 Alpha  occ. eigenvalues --   -0.61011  -0.60687  -0.60316  -0.59802  -0.59047
 Alpha  occ. eigenvalues --   -0.58926  -0.58291  -0.56876  -0.56535  -0.55796
 Alpha  occ. eigenvalues --   -0.55606  -0.55592  -0.55499  -0.54973  -0.54092
 Alpha  occ. eigenvalues --   -0.53949  -0.53635  -0.53269  -0.53166  -0.52949
 Alpha  occ. eigenvalues --   -0.52042  -0.51726  -0.51363  -0.50439  -0.50324
 Alpha  occ. eigenvalues --   -0.50142  -0.49925  -0.49546  -0.49029  -0.48820
 Alpha  occ. eigenvalues --   -0.48756  -0.48035  -0.47920  -0.47645  -0.47074
 Alpha  occ. eigenvalues --   -0.46755  -0.45582  -0.45510  -0.44806  -0.43292
 Alpha  occ. eigenvalues --   -0.41313  -0.41072  -0.38947  -0.38198  -0.38037
 Alpha  occ. eigenvalues --   -0.37392  -0.37293  -0.36973  -0.35402  -0.35231
 Alpha  occ. eigenvalues --   -0.34949  -0.34080  -0.33435  -0.33341  -0.32953
 Alpha  occ. eigenvalues --   -0.32586  -0.32383  -0.31890  -0.31171  -0.30649
 Alpha  occ. eigenvalues --   -0.30557  -0.30436  -0.26166  -0.25309
 Alpha virt. eigenvalues --    0.03508   0.03743   0.06454   0.07980   0.08929
 Alpha virt. eigenvalues --    0.09192   0.09761   0.10226   0.10836   0.11671
 Alpha virt. eigenvalues --    0.13613   0.14290   0.14466   0.14697   0.14743

 Mulliken charges:
               1
     1  N   -0.308986
     2  C    0.183015
     3  C    0.065159
     4  N   -0.259262
     5  C    0.148351
     6  H    0.028508
     7  N   -0.290953
     8  C    0.121420
     9  H    0.014177
    10  N   -0.274631
    11  C    0.250710
    12  C    0.079650
    13  N   -0.069239
    14  H    0.113601
    15  H    0.081921
    16  H    0.019965
    17  H    0.029647
    18  H    0.033148
    19  N   -0.310767
    20  C    0.260867
    21  C    0.181844
    22  N   -0.120646
    23  H    0.122859
    24  H    0.117513
    25  N   -0.308778
    26  C    0.231881
    27  N   -0.131229
    28  H    0.118345
    29  C    0.174683
    30  O   -0.319139
    31  C   -0.002259
    32  N   -0.233916
    33  C    0.120547
    34  H    0.021903
    35  H    0.026662
    36  H    0.030250
    37  H    0.024824
    38  H    0.067509
    39  H    0.056709
    40  H    0.076923
    41  H    0.025646
    42  C   -0.118887
    43  O   -0.261057
    44  C    0.170336
    45  H    0.135439
    46  N   -0.125812
    47  O   -0.349837
    48  C    0.352672
    49  H    0.041247
    50  C    0.166242
    51  C    0.036657
    52  N   -0.277773
    53  H    0.034454
    54  H    0.039990
    55  H    0.030885
    56  H    0.118340
    57  H    0.120359
    58  N   -0.064760
    59  C    0.070712
    60  C    0.236473
    61  N   -0.266895
    62  H    0.024928
    63  C    0.174022
    64  N   -0.307755
    65  H    0.040397
    66  C    0.140392
    67  N   -0.257675
    68  C    0.027718
    69  C    0.180846
    70  N   -0.310091
 Sum of Mulliken charges =  -0.00000

 Dipole moment (field-independent basis, Debye):
    X=             -8.0433    Y=              6.8225    Z=             -1.1526  Tot=             10.6099
 Quadrupole moment (field-independent basis, Debye-Ang):
   XX=           -164.9906   YY=           -218.8771   ZZ=           -251.5985
   XY=              6.2175   XZ=            -17.9103   YZ=              9.3266

 Normal termination of Gaussian 16 at Wed Jan 24 07:33:45 2018.
