 Gaussian 16, Revision A.03,
 Gaussian 16:  EM64L-G16RevA.03 25-Dec-2016

 ---------------------------------------
 #p wb97xd/cc-pvdz sp scf=(maxcycles=20)
 ---------------------------------------

 ------------------
 Base pair stacking
 ------------------
 Symbolic Z-matrix:
 Charge =  0 Multiplicity = 1

                         Standard orientation:
 ---------------------------------------------------------------------
 Center     Atomic      Atomic             Coordinates (Angstroms)
 Number     Number       Type             X           Y           Z
 ---------------------------------------------------------------------
      1          7           0       -6.413536   -1.576981    0.616460
      2          6           0       -7.797750   -1.066604    0.578333
      3          6           0       -4.229214   -1.728658    0.823946
      4          7           0       -4.676264   -2.998394    0.488326
      5          6           0       -5.974343   -2.856192    0.376760
      6          1           0       -6.666114   -3.658778    0.119351
      7          7           0       -2.846488    0.096853    1.388322
      8          6           0       -3.962894    0.831331    1.430335
      9          1           0       -3.819642    1.881100    1.682758
     10          7           0       -5.223755    0.465462    1.208386
     11          6           0       -5.288610   -0.841877    0.906582
     12          6           0       -2.945163   -1.215148    1.081737
     13          7           0       -1.831869   -1.949965    1.039300
     14          1           0       -1.857687   -2.925150    0.816678
     15          1           0       -0.934566   -1.550979    1.228492
     16          1           0       -8.354715   -1.559444    1.246962
     17          1           0       -7.800399   -0.091429    0.797808
     18          1           0       -8.180032   -1.201836   -0.335766
     19          7           0       -2.974193    2.654523   -1.645949
     20          6           0       -1.641645    2.359358   -1.487035
     21          6           0       -3.578225    3.991655   -1.478821
     22          7           0        1.597841    3.375787   -0.756078
     23          1           0        2.504430    2.959760   -0.690739
     24          1           0        1.534487    4.356915   -0.571429
     25          7           0       -0.668054    3.234210   -1.154191
     26          6           0        0.515142    2.651373   -1.076832
     27          7           0        0.730531    1.314236   -1.307422
     28          1           0        1.669245    0.954949   -1.225552
     29          6           0       -0.256301    0.395603   -1.651119
     30          8           0        0.044131   -0.790004   -1.837709
     31          6           0       -1.532847    1.006967   -1.738048
     32          7           0       -2.772136    0.464027   -2.048311
     33          6           0       -3.594388    1.475785   -1.981481
     34          1           0       -4.667235    1.417449   -2.168250
     35          1           0       -4.266516    3.960194   -0.754901
     36          1           0       -2.866523    4.648087   -1.232153
     37          1           0       -4.008453    4.274322   -2.335446
     38          1           0        6.441820   -0.329590   -0.031764
     39          1           0        6.674889   -0.266343   -1.777138
     40          1           0        5.502321    0.801920   -1.005612
     41          1           0        4.498870   -4.534156   -1.332965
     42          6           0        4.244773   -3.474133   -1.328484
     43          8           0        1.923502   -3.840616   -1.651736
     44          6           0        2.879183   -3.080758   -1.496588
     45          1           0        1.714828   -1.400386   -1.591175
     46          7           0        2.667245   -1.716986   -1.475467
     47          8           0        3.327079    0.449592   -1.308846
     48          6           0        3.612290   -0.735012   -1.313692
     49          1           0        6.241692   -2.786308   -1.036902
     50          6           0        5.189013   -2.539559   -1.168528
     51          6           0        5.949933   -0.180515   -0.981438
     52          7           0        4.905603   -1.193478   -1.157598
     53          1           0        3.934859    3.780436    3.156651
     54          1           0        2.769416    3.848327    2.016817
     55          1           0        4.341275    3.840153    1.577201
     56          1           0        1.643414   -3.071252    1.462753
     57          1           0        3.256181   -2.716225    1.890614
     58          7           0        2.339366   -2.382968    1.667862
     59          6           0        2.058373   -1.078467    1.645611
     60          6           0        2.558931    1.237562    1.862827
     61          7           0        1.318903    1.656193    1.560323
     62          1           0       -0.506466    0.869049    1.061309
     63          6           0        0.522242    0.617687    1.315936
     64          7           0        0.801774   -0.689592    1.337708
     65          1           0        5.678645    1.486617    2.673722
     66          6           0        4.681492    1.137331    2.404218
     67          7           0        4.344149   -0.121920    2.269369
     68          6           0        3.000829   -0.072494    1.926200
     69          6           0        3.675908    3.488609    2.235898
     70          7           0        3.650010    2.014388    2.172831
 ---------------------------------------------------------------------

 SCF Done:  E(RwB97XD) =  -2048.74319815     A.U. after   15 cycles

 The electronic state is 1-A.
 Alpha  occ. eigenvalues --  -19.25934 -19.22164 -19.20641 -14.52478 -14.52010
 Alpha  occ. eigenvalues --  -14.48778 -14.48702 -14.47905 -14.47432 -14.46844
 Alpha  occ. eigenvalues --  -14.46631 -14.45036 -14.43536 -14.43343 -14.42233
 Alpha  occ. eigenvalues --  -14.42067 -14.41416 -14.40959 -14.40728 -14.40181
 Alpha  occ. eigenvalues --  -10.45549 -10.41145 -10.40265 -10.39217 -10.38201
 Alpha  occ. eigenvalues --  -10.37917 -10.37556 -10.36555 -10.35422 -10.35131
 Alpha  occ. eigenvalues --  -10.35078 -10.34316 -10.34086 -10.33838 -10.33363
 Alpha  occ. eigenvalues --  -10.33192 -10.33130 -10.31986 -10.31214 -10.31017
 Alpha  occ. eigenvalues --  -10.30799 -10.28523 -10.28071  -1.19501  -1.14678
 Alpha  occ. eigenvalues --   -1.13228  -1.13166  -1.11350  -1.10542  -1.09365
 Alpha  occ. eigenvalues --   -1.08639  -1.08476  -1.04991  -1.04123  -1.02562
 Alpha  occ. eigenvalues --   -1.00518  -1.00445  -0.99758  -0.98539  -0.96983
 Alpha  occ. eigenvalues --   -0.96515  -0.96106  -0.92653  -0.91133  -0.87118
 Alpha  occ. eigenvalues --   -0.85578  -0.84052  -0.83956  -0.83612  -0.82433
 Alpha  occ. eigenvalues --   -0.82337  -0.78943  -0.76453  -0.74597  -0.74204
 Alpha  occ. eigenvalues --   -0.73666  -0.73419  -0.72913  -0.71076  -0.69863
 Alpha  occ. eigenvalues --   -0.67372  -0.66602  -0.66322  -0.66211  -0.64490
 Alpha  occ. eigenvalues --   -0.63765  -0.63723  -0.62739  -0.62704  -0.61727
 Alpha  occ. eigenvalues --   -0.60324  -0.60114  -0.59926  -0.59557  -0.59193
 Alpha  occ. eigenvalues --   -0.59014  -0.58351  -0.56741  -0.56525  -0.56387
 Alpha  occ. eigenvalues --   -0.56024  -0.55454  -0.55053  -0.54673  -0.54401
 Alpha  occ. eigenvalues --   -0.53701  -0.53645  -0.53076  -0.52942  -0.52798
 Alpha  occ. eigenvalues --   -0.52415  -0.52249  -0.51792  -0.50776  -0.50229
 Alpha  occ. eigenvalues --   -0.50156  -0.49485  -0.49394  -0.48873  -0.48765
 Alpha  occ. eigenvalues --   -0.48716  -0.48348  -0.48183  -0.47785  -0.47411
 Alpha  occ. eigenvalues --   -0.46968  -0.45639  -0.45000  -0.44183  -0.43786
 Alpha  occ. eigenvalues --   -0.41177  -0.40242  -0.39495  -0.37434  -0.37279
 Alpha  occ. eigenvalues --   -0.37229  -0.37179  -0.36760  -0.35935  -0.34348
 Alpha  occ. eigenvalues --   -0.34034  -0.33622  -0.33438  -0.33317  -0.33112
 Alpha  occ. eigenvalues --   -0.32661  -0.32381  -0.32055  -0.31802  -0.30906
 Alpha  occ. eigenvalues --   -0.30414  -0.29223  -0.25823  -0.25328
 Alpha virt. eigenvalues --    0.02894   0.04688   0.07359   0.07972   0.08818
 Alpha virt. eigenvalues --    0.09189   0.09590   0.10925   0.11181   0.11533
 Alpha virt. eigenvalues --    0.12741   0.14174   0.14462   0.14633   0.14863

 Mulliken charges:
               1
     1  N   -0.312081
     2  C    0.180785
     3  C    0.044135
     4  N   -0.259531
     5  C    0.134205
     6  H    0.026453
     7  N   -0.289640
     8  C    0.132343
     9  H    0.009621
    10  N   -0.291872
    11  C    0.242741
    12  C    0.120171
    13  N   -0.053304
    14  H    0.109679
    15  H    0.088588
    16  H    0.025530
    17  H    0.032960
    18  H    0.025923
    19  N   -0.310408
    20  C    0.246793
    21  C    0.180386
    22  N   -0.101803
    23  H    0.112891
    24  H    0.114670
    25  N   -0.300774
    26  C    0.222935
    27  N   -0.129222
    28  H    0.115223
    29  C    0.155783
    30  O   -0.319362
    31  C    0.011573
    32  N   -0.225413
    33  C    0.128745
    34  H    0.026029
    35  H    0.030641
    36  H    0.027696
    37  H    0.024015
    38  H    0.062719
    39  H    0.058661
    40  H    0.071186
    41  H    0.030300
    42  C   -0.115303
    43  O   -0.267723
    44  C    0.165968
    45  H    0.134769
    46  N   -0.125695
    47  O   -0.347260
    48  C    0.351428
    49  H    0.048490
    50  C    0.173648
    51  C    0.040514
    52  N   -0.287397
    53  H    0.035981
    54  H    0.036865
    55  H    0.024256
    56  H    0.127111
    57  H    0.114785
    58  N   -0.062720
    59  C    0.090636
    60  C    0.233823
    61  N   -0.266943
    62  H    0.041592
    63  C    0.167597
    64  N   -0.300396
    65  H    0.032438
    66  C    0.133696
    67  N   -0.264578
    68  C    0.024145
    69  C    0.173024
    70  N   -0.312724
 Sum of Mulliken charges =  -0.00000

 Dipole moment (field-independent basis, Debye):
    X=              7.9139    Y=              5.9132    Z=              2.4154  Tot=             10.1700
 Quadrupole moment (field-independent basis, Debye-Ang):
   XX=           -149.8674   YY=           -219.9587   ZZ=           -253.7054
   XY=              2.4474   XZ=              6.9734   YZ=             -8.1692

 Normal termination of Gaussian 16 at Tue Jan 23 13:36:43 2018.
