 Gaussian 16, Revision A.03,
 Gaussian 16:  EM64L-G16RevA.03 25-Dec-2016

 ---------------------------------------
 #p wb97xd/cc-pvdz sp scf=(maxcycles=20)
 ---------------------------------------

 ------------------
 Base pair stacking
 ------------------
 Symbolic Z-matrix:
 Charge =  0 Multiplicity = 1

                         Standard orientation:
 ---------------------------------------------------------------------
 Center     Atomic      Atomic             Coordinates (Angstroms)
 Number     Number       Type             X           Y           Z
 ---------------------------------------------------------------------
      1          7           0       -6.982423   -1.478914    0.168224
      2          6           0       -8.373306   -0.988173    0.219676
      3          6           0       -4.799789   -1.649954    0.378370
      4          7           0       -5.222248   -2.815513   -0.244322
      5          6           0       -6.520290   -2.665812   -0.346001
      6          1           0       -7.195667   -3.396719   -0.791630
      7          7           0       -3.453965    0.015247    1.367701
      8          6           0       -4.581751    0.709010    1.553070
      9          1           0       -4.458379    1.675858    2.039107
     10          7           0       -5.833193    0.389250    1.229702
     11          6           0       -5.873529   -0.816439    0.638856
     12          6           0       -3.527969   -1.194268    0.770475
     13          7           0       -2.403282   -1.888293    0.584563
     14          1           0       -2.410852   -2.787983    0.146695
     15          1           0       -1.515265   -1.532806    0.876454
     16          1           0       -8.933757   -1.625604    0.748581
     17          1           0       -8.394134   -0.088103    0.653913
     18          1           0       -8.738430   -0.917082   -0.708559
     19          7           0       -2.251043    2.848846   -1.781163
     20          6           0       -0.932457    2.510871   -1.593660
     21          6           0       -2.795699    4.220649   -1.734243
     22          7           0        2.349541    3.445262   -0.947740
     23          1           0        3.237133    2.997382   -0.843764
     24          1           0        2.329470    4.440690   -0.850639
     25          7           0        0.079011    3.368293   -1.337113
     26          6           0        1.235669    2.743383   -1.205794
     27          7           0        1.391982    1.382962   -1.316834
     28          1           0        2.314185    0.991607   -1.201345
     29          6           0        0.365355    0.481599   -1.580360
     30          8           0        0.613324   -0.727867   -1.660770
     31          6           0       -0.883335    1.138136   -1.723967
     32          7           0       -2.145674    0.624630   -1.987957
     33          6           0       -2.922748    1.673325   -2.012708
     34          1           0       -3.997394    1.645683   -2.196112
     35          1           0       -3.483614    4.283400   -1.011993
     36          1           0       -2.055579    4.864546   -1.544853
     37          1           0       -3.214443    4.445055   -2.613501
     38          1           0        7.027777   -0.389930    0.112494
     39          1           0        7.260735   -0.491409   -1.631095
     40          1           0        6.137219    0.691111   -0.959722
     41          1           0        4.900656   -4.604004   -0.816744
     42          6           0        4.693209   -3.537648   -0.906530
     43          8           0        2.357624   -3.829380   -1.201602
     44          6           0        3.345890   -3.101314   -1.111936
     45          1           0        2.256069   -1.386562   -1.357353
     46          7           0        3.193892   -1.733046   -1.211880
     47          8           0        3.948178    0.408842   -1.235762
     48          6           0        4.181251   -0.782896   -1.135263
     49          1           0        6.718765   -2.914734   -0.672148
     50          6           0        5.677687   -2.634780   -0.827540
     51          6           0        6.541431   -0.303984   -0.847801
     52          7           0        5.453495   -1.281898   -0.936235
     53          1           0        3.241594    3.276062    4.054508
     54          1           0        2.094172    3.587626    2.937170
     55          1           0        3.672991    3.696215    2.537671
     56          1           0        1.080939   -3.038628    0.810778
     57          1           0        2.680965   -2.772231    1.339054
     58          7           0        1.763060   -2.407154    1.179703
     59          6           0        1.463023   -1.134606    1.447608
     60          6           0        1.925278    1.077389    2.192661
     61          7           0        0.684285    1.540180    1.968681
     62          1           0       -1.120676    0.866728    1.269264
     63          6           0       -0.092654    0.575406    1.480345
     64          7           0        0.205984   -0.699750    1.211317
     65          1           0        5.027162    1.170168    3.099239
     66          6           0        4.039917    0.880186    2.738431
     67          7           0        3.723679   -0.319412    2.315761
     68          6           0        2.385594   -0.208132    1.966674
     69          6           0        3.002217    3.197494    3.086772
     70          7           0        2.999380    1.775632    2.691421
 ---------------------------------------------------------------------

 SCF Done:  E(RwB97XD) =  -2048.74271486     A.U. after   15 cycles

 The electronic state is 1-A.
 Alpha  occ. eigenvalues --  -19.26151 -19.22754 -19.20931 -14.52824 -14.51129
 Alpha  occ. eigenvalues --  -14.48968 -14.48815 -14.48320 -14.47332 -14.47310
 Alpha  occ. eigenvalues --  -14.45866 -14.44203 -14.42581 -14.42407 -14.42387
 Alpha  occ. eigenvalues --  -14.41926 -14.41474 -14.40994 -14.40860 -14.40067
 Alpha  occ. eigenvalues --  -10.45844 -10.41650 -10.40793 -10.38566 -10.38305
 Alpha  occ. eigenvalues --  -10.38021 -10.36742 -10.35634 -10.35573 -10.35303
 Alpha  occ. eigenvalues --  -10.34630 -10.34131 -10.34043 -10.33442 -10.33383
 Alpha  occ. eigenvalues --  -10.33040 -10.32911 -10.31547 -10.31117 -10.31008
 Alpha  occ. eigenvalues --  -10.31006 -10.28537 -10.28403  -1.19762  -1.13825
 Alpha  occ. eigenvalues --   -1.13784  -1.13544  -1.11391  -1.10837  -1.09716
 Alpha  occ. eigenvalues --   -1.08979  -1.07410  -1.04906  -1.03142  -1.02861
 Alpha  occ. eigenvalues --   -1.00313  -1.00266  -0.99550  -0.98850  -0.96957
 Alpha  occ. eigenvalues --   -0.96792  -0.95019  -0.92535  -0.91508  -0.86179
 Alpha  occ. eigenvalues --   -0.84621  -0.84364  -0.84021  -0.83959  -0.82700
 Alpha  occ. eigenvalues --   -0.82325  -0.79328  -0.75445  -0.74907  -0.74077
 Alpha  occ. eigenvalues --   -0.73825  -0.73149  -0.72853  -0.71018  -0.68819
 Alpha  occ. eigenvalues --   -0.67775  -0.66990  -0.66243  -0.65187  -0.64867
 Alpha  occ. eigenvalues --   -0.64090  -0.62996  -0.62746  -0.62474  -0.62137
 Alpha  occ. eigenvalues --   -0.60123  -0.59951  -0.59939  -0.58936  -0.58885
 Alpha  occ. eigenvalues --   -0.58568  -0.58078  -0.56812  -0.56444  -0.56435
 Alpha  occ. eigenvalues --   -0.56313  -0.55260  -0.54837  -0.54558  -0.54009
 Alpha  occ. eigenvalues --   -0.53928  -0.53690  -0.53236  -0.52825  -0.52514
 Alpha  occ. eigenvalues --   -0.52177  -0.51722  -0.51375  -0.50746  -0.50520
 Alpha  occ. eigenvalues --   -0.50154  -0.49882  -0.49331  -0.49186  -0.49044
 Alpha  occ. eigenvalues --   -0.48555  -0.48334  -0.47886  -0.47831  -0.47644
 Alpha  occ. eigenvalues --   -0.46928  -0.45374  -0.45057  -0.44516  -0.43007
 Alpha  occ. eigenvalues --   -0.41119  -0.39763  -0.39286  -0.37622  -0.37536
 Alpha  occ. eigenvalues --   -0.37153  -0.36624  -0.36045  -0.35843  -0.34800
 Alpha  occ. eigenvalues --   -0.33913  -0.33547  -0.33487  -0.33066  -0.32901
 Alpha  occ. eigenvalues --   -0.32657  -0.32499  -0.32365  -0.32085  -0.30945
 Alpha  occ. eigenvalues --   -0.30287  -0.28281  -0.25818  -0.25650
 Alpha virt. eigenvalues --    0.02443   0.05477   0.07845   0.08013   0.08516
 Alpha virt. eigenvalues --    0.09335   0.09415   0.11044   0.11625   0.12225
 Alpha virt. eigenvalues --    0.12726   0.13969   0.14537   0.14746   0.15827

 Mulliken charges:
               1
     1  N   -0.310799
     2  C    0.180908
     3  C    0.031364
     4  N   -0.257537
     5  C    0.132058
     6  H    0.026226
     7  N   -0.290973
     8  C    0.129864
     9  H    0.010877
    10  N   -0.290218
    11  C    0.237702
    12  C    0.122471
    13  N   -0.049990
    14  H    0.109589
    15  H    0.090594
    16  H    0.025791
    17  H    0.034738
    18  H    0.024969
    19  N   -0.311580
    20  C    0.248464
    21  C    0.181381
    22  N   -0.125702
    23  H    0.114564
    24  H    0.117697
    25  N   -0.305119
    26  C    0.243725
    27  N   -0.133540
    28  H    0.115565
    29  C    0.169090
    30  O   -0.322753
    31  C   -0.004033
    32  N   -0.222127
    33  C    0.132257
    34  H    0.030796
    35  H    0.030935
    36  H    0.028382
    37  H    0.024967
    38  H    0.062453
    39  H    0.060378
    40  H    0.073667
    41  H    0.032458
    42  C   -0.107331
    43  O   -0.277788
    44  C    0.142151
    45  H    0.137623
    46  N   -0.123742
    47  O   -0.352277
    48  C    0.363431
    49  H    0.050655
    50  C    0.181331
    51  C    0.042389
    52  N   -0.293026
    53  H    0.030670
    54  H    0.043509
    55  H    0.017657
    56  H    0.129478
    57  H    0.113114
    58  N   -0.043171
    59  C    0.096356
    60  C    0.243624
    61  N   -0.267290
    62  H    0.042240
    63  C    0.155150
    64  N   -0.298436
    65  H    0.027323
    66  C    0.130331
    67  N   -0.270594
    68  C    0.018310
    69  C    0.181166
    70  N   -0.312414
 Sum of Mulliken charges =  -0.00000

 Dipole moment (field-independent basis, Debye):
    X=              8.4964    Y=              5.8178    Z=              1.2544  Tot=             10.3735
 Quadrupole moment (field-independent basis, Debye-Ang):
   XX=           -145.1052   YY=           -219.7794   ZZ=           -248.9132
   XY=              2.9111   XZ=             13.0599   YZ=             -4.0655

 Normal termination of Gaussian 16 at Wed Jan 24 02:44:55 2018.
