 Gaussian 16, Revision A.03,
 Gaussian 16:  EM64L-G16RevA.03 25-Dec-2016

 ---------------------------------------
 #p wb97xd/cc-pvdz sp scf=(maxcycles=20)
 ---------------------------------------

 ------------------
 Base pair stacking
 ------------------
 Symbolic Z-matrix:
 Charge =  0 Multiplicity = 1

                         Standard orientation:
 ---------------------------------------------------------------------
 Center     Atomic      Atomic             Coordinates (Angstroms)
 Number     Number       Type             X           Y           Z
 ---------------------------------------------------------------------
      1          7           0       -7.187578   -1.432867    0.121411
      2          6           0       -8.558630   -0.905118   -0.018887
      3          6           0       -5.022720   -1.607412    0.468200
      4          7           0       -5.468391   -2.881532    0.147702
      5          6           0       -6.754794   -2.725391   -0.048394
      6          1           0       -7.442098   -3.526659   -0.321386
      7          7           0       -3.648491    0.217033    1.056301
      8          6           0       -4.753635    0.967764    1.005080
      9          1           0       -4.609561    2.023426    1.231088
     10          7           0       -6.004172    0.611925    0.717928
     11          6           0       -6.071054   -0.703876    0.455996
     12          6           0       -3.748916   -1.103129    0.787663
     13          7           0       -2.646863   -1.854184    0.838279
     14          1           0       -2.674386   -2.835915    0.646785
     15          1           0       -1.756638   -1.461372    1.069222
     16          1           0       -9.163202   -1.367325    0.629986
     17          1           0       -8.559318    0.076869    0.167711
     18          1           0       -8.886317   -1.066007   -0.949877
     19          7           0       -2.082272    2.602811   -1.759355
     20          6           0       -0.766776    2.294923   -1.508854
     21          6           0       -2.674201    3.953002   -1.674028
     22          7           0        2.437525    3.290979   -0.613296
     23          1           0        3.331731    2.864996   -0.478440
     24          1           0        2.378489    4.278570   -0.465379
     25          7           0        0.198313    3.167108   -1.145601
     26          6           0        1.365190    2.571043   -0.976183
     27          7           0        1.573156    1.224017   -1.148800
     28          1           0        2.499303    0.854865   -0.997344
     29          6           0        0.594835    0.307897   -1.522250
     30          8           0        0.887377   -0.887364   -1.650723
     31          6           0       -0.664172    0.933438   -1.707916
     32          7           0       -1.890573    0.397365   -2.075992
     33          6           0       -2.699296    1.422003   -2.093452
     34          1           0       -3.759471    1.372100   -2.344048
     35          1           0       -3.405940    3.955552   -0.993325
     36          1           0       -1.968669    4.607581   -1.405701
     37          1           0       -3.046670    4.212344   -2.564432
     38          1           0        7.168965   -0.453888    0.530439
     39          1           0        7.509420   -0.453053   -1.198359
     40          1           0        6.308833    0.656752   -0.536333
     41          1           0        5.243174   -4.673073   -0.748765
     42          6           0        5.006048   -3.610118   -0.794949
     43          8           0        2.703425   -3.955440   -1.248577
     44          6           0        3.659694   -3.203953   -1.059897
     45          1           0        2.529992   -1.511924   -1.281550
     46          7           0        3.468420   -1.837468   -1.096902
     47          8           0        4.150944    0.324249   -0.961447
     48          6           0        4.417176   -0.863643   -0.909597
     49          1           0        6.991982   -2.940289   -0.403533
     50          6           0        5.953364   -2.683713   -0.607944
     51          6           0        6.738557   -0.330353   -0.452182
     52          7           0        5.691106   -1.334270   -0.658942
     53          1           0        3.069186    3.864968    3.117278
     54          1           0        1.976930    3.910176    1.906073
     55          1           0        3.572428    3.865520    1.564812
     56          1           0        0.777850   -3.008091    1.512169
     57          1           0        2.366789   -2.660936    2.026799
     58          7           0        1.470711   -2.322874    1.737016
     59          6           0        1.212250   -1.016139    1.654442
     60          6           0        1.735078    1.298831    1.825607
     61          7           0        0.522661    1.723954    1.433504
     62          1           0       -1.280947    0.945491    0.849027
     63          6           0       -0.273852    0.688794    1.174810
     64          7           0       -0.016848   -0.620698    1.256912
     65          1           0        4.802830    1.532368    2.818830
     66          6           0        3.818665    1.187875    2.499973
     67          7           0        3.470366   -0.070464    2.386180
     68          6           0        2.151514   -0.014262    1.959316
     69          6           0        2.862521    3.545691    2.192432
     70          7           0        2.817253    2.070661    2.176556
 ---------------------------------------------------------------------

 SCF Done:  E(RwB97XD) =  -2048.73326515     A.U. after   15 cycles

 The electronic state is 1-A.
 Alpha  occ. eigenvalues --  -19.25976 -19.22173 -19.20781 -14.52543 -14.51345
 Alpha  occ. eigenvalues --  -14.49221 -14.48887 -14.48016 -14.47392 -14.46978
 Alpha  occ. eigenvalues --  -14.46549 -14.44269 -14.42663 -14.42525 -14.42485
 Alpha  occ. eigenvalues --  -14.42144 -14.41911 -14.41371 -14.40886 -14.40590
 Alpha  occ. eigenvalues --  -10.45618 -10.41500 -10.40282 -10.38422 -10.38391
 Alpha  occ. eigenvalues --  -10.37907 -10.36854 -10.35840 -10.35741 -10.35474
 Alpha  occ. eigenvalues --  -10.34562 -10.34469 -10.34179 -10.33850 -10.33557
 Alpha  occ. eigenvalues --  -10.33415 -10.33191 -10.31300 -10.31262 -10.31198
 Alpha  occ. eigenvalues --  -10.30904 -10.29032 -10.28340  -1.19534  -1.14072
 Alpha  occ. eigenvalues --   -1.13383  -1.13182  -1.11823  -1.10739  -1.09437
 Alpha  occ. eigenvalues --   -1.08945  -1.07700  -1.05426  -1.03274  -1.02638
 Alpha  occ. eigenvalues --   -1.00847  -1.00524  -0.99622  -0.98680  -0.97398
 Alpha  occ. eigenvalues --   -0.96696  -0.95290  -0.93066  -0.91165  -0.86452
 Alpha  occ. eigenvalues --   -0.84921  -0.84383  -0.84286  -0.83823  -0.82732
 Alpha  occ. eigenvalues --   -0.82628  -0.78997  -0.75684  -0.74835  -0.74087
 Alpha  occ. eigenvalues --   -0.73500  -0.73382  -0.73332  -0.71512  -0.69095
 Alpha  occ. eigenvalues --   -0.67766  -0.66724  -0.66686  -0.65447  -0.64612
 Alpha  occ. eigenvalues --   -0.63939  -0.63205  -0.62920  -0.62861  -0.62265
 Alpha  occ. eigenvalues --   -0.60585  -0.59754  -0.59653  -0.59328  -0.59262
 Alpha  occ. eigenvalues --   -0.58855  -0.58343  -0.56903  -0.56827  -0.56767
 Alpha  occ. eigenvalues --   -0.56116  -0.55774  -0.54913  -0.54532  -0.54184
 Alpha  occ. eigenvalues --   -0.53808  -0.53492  -0.53115  -0.52641  -0.52618
 Alpha  occ. eigenvalues --   -0.52162  -0.52075  -0.51618  -0.51174  -0.50591
 Alpha  occ. eigenvalues --   -0.50299  -0.49570  -0.49495  -0.48971  -0.48740
 Alpha  occ. eigenvalues --   -0.48662  -0.48418  -0.48011  -0.47588  -0.47472
 Alpha  occ. eigenvalues --   -0.47398  -0.45526  -0.45365  -0.44156  -0.42963
 Alpha  occ. eigenvalues --   -0.41632  -0.39583  -0.39397  -0.37679  -0.37583
 Alpha  occ. eigenvalues --   -0.37383  -0.36417  -0.36148  -0.35898  -0.35047
 Alpha  occ. eigenvalues --   -0.33983  -0.33924  -0.33362  -0.33082  -0.32887
 Alpha  occ. eigenvalues --   -0.32522  -0.32293  -0.32076  -0.31987  -0.31414
 Alpha  occ. eigenvalues --   -0.30781  -0.28508  -0.26227  -0.25542
 Alpha virt. eigenvalues --    0.02991   0.05254   0.07472   0.08068   0.08296
 Alpha virt. eigenvalues --    0.09333   0.09570   0.10507   0.11282   0.12386
 Alpha virt. eigenvalues --    0.12808   0.13610   0.14513   0.14595   0.14964

 Mulliken charges:
               1
     1  N   -0.310994
     2  C    0.180849
     3  C    0.031013
     4  N   -0.258781
     5  C    0.134049
     6  H    0.028025
     7  N   -0.287554
     8  C    0.125142
     9  H    0.011978
    10  N   -0.287889
    11  C    0.240670
    12  C    0.120942
    13  N   -0.053179
    14  H    0.107862
    15  H    0.088868
    16  H    0.026422
    17  H    0.035247
    18  H    0.026466
    19  N   -0.307415
    20  C    0.236801
    21  C    0.181800
    22  N   -0.112809
    23  H    0.118037
    24  H    0.115866
    25  N   -0.281315
    26  C    0.212694
    27  N   -0.114759
    28  H    0.118221
    29  C    0.154855
    30  O   -0.320774
    31  C   -0.009667
    32  N   -0.219225
    33  C    0.131202
    34  H    0.031298
    35  H    0.030132
    36  H    0.027846
    37  H    0.024766
    38  H    0.061001
    39  H    0.060354
    40  H    0.071834
    41  H    0.031743
    42  C   -0.112444
    43  O   -0.269077
    44  C    0.172075
    45  H    0.135499
    46  N   -0.137249
    47  O   -0.352468
    48  C    0.366972
    49  H    0.048397
    50  C    0.175774
    51  C    0.042497
    52  N   -0.296514
    53  H    0.031137
    54  H    0.041827
    55  H    0.000172
    56  H    0.122682
    57  H    0.115751
    58  N   -0.058430
    59  C    0.110975
    60  C    0.227676
    61  N   -0.259394
    62  H    0.048411
    63  C    0.151433
    64  N   -0.297969
    65  H    0.026292
    66  C    0.128080
    67  N   -0.265603
    68  C    0.025073
    69  C    0.183629
    70  N   -0.306824
 Sum of Mulliken charges =  -0.00000

 Dipole moment (field-independent basis, Debye):
    X=              7.5295    Y=              5.6207    Z=              2.4995  Tot=              9.7229
 Quadrupole moment (field-independent basis, Debye-Ang):
   XX=           -143.3416   YY=           -221.3342   ZZ=           -251.7324
   XY=              6.5124   XZ=             14.9033   YZ=             -9.0251

 Normal termination of Gaussian 16 at Tue Jan 23 14:45:50 2018.
