 Gaussian 16, Revision A.03,
 Gaussian 16:  EM64L-G16RevA.03 25-Dec-2016

 ---------------------------------------
 #p wb97xd/cc-pvdz sp scf=(maxcycles=20)
 ---------------------------------------

 ------------------
 Base pair stacking
 ------------------
 Symbolic Z-matrix:
 Charge =  0 Multiplicity = 1

                         Standard orientation:
 ---------------------------------------------------------------------
 Center     Atomic      Atomic             Coordinates (Angstroms)
 Number     Number       Type             X           Y           Z
 ---------------------------------------------------------------------
      1          7           0        5.804854   -1.639597   -1.043982
      2          6           0        7.192879   -1.144496   -0.964785
      3          6           0        3.614055   -1.751629   -1.202584
      4          7           0        4.063392   -3.060423   -1.103192
      5          6           0        5.365286   -2.940544   -1.011619
      6          1           0        6.059734   -3.775917   -0.917627
      7          7           0        2.225812    0.144691   -1.401841
      8          6           0        3.345045    0.874531   -1.354582
      9          1           0        3.200590    1.952109   -1.419503
     10          7           0        4.609983    0.474983   -1.239702
     11          6           0        4.675993   -0.864738   -1.167494
     12          6           0        2.325751   -1.200472   -1.326826
     13          7           0        1.209650   -1.930720   -1.373827
     14          1           0        1.236253   -2.929612   -1.321689
     15          1           0        0.309338   -1.504478   -1.462717
     16          1           0        7.724844   -1.516555   -1.725547
     17          1           0        7.194816   -0.146185   -1.014754
     18          1           0        7.603439   -1.434064   -0.100161
     19          7           0        3.679947    2.490845    1.402882
     20          6           0        2.335894    2.224574    1.299479
     21          6           0        4.315502    3.795049    1.127521
     22          7           0       -0.893635    3.282684    0.583770
     23          1           0       -1.812758    2.889858    0.571048
     24          1           0       -0.808584    4.246499    0.329711
     25          7           0        1.377741    3.102569    0.931905
     26          6           0        0.177322    2.550682    0.925993
     27          7           0       -0.068124    1.239461    1.254569
     28          1           0       -1.018243    0.903025    1.222257
     29          6           0        0.902363    0.318168    1.635680
     30          8           0        0.574852   -0.842487    1.912036
     31          6           0        2.197105    0.896434    1.646734
     32          7           0        3.429225    0.340090    1.961800
     33          6           0        4.276709    1.320343    1.803444
     34          1           0        5.352337    1.243622    1.965946
     35          1           0        4.982223    3.693698    0.389947
     36          1           0        3.615454    4.453498    0.854288
     37          1           0        4.777024    4.123281    1.950960
     38          1           0       -5.855673   -0.320377    0.244831
     39          1           0       -6.038169   -0.130359    1.987027
     40          1           0       -4.858724    0.847490    1.112913
     41          1           0       -3.993170   -4.480486    1.784680
     42          6           0       -3.710340   -3.431178    1.699868
     43          8           0       -1.391869   -3.842339    1.987571
     44          6           0       -2.330319   -3.067310    1.804733
     45          1           0       -1.118158   -1.419225    1.751964
     46          7           0       -2.081756   -1.715010    1.683278
     47          8           0       -2.686341    0.453341    1.383458
     48          6           0       -3.003666   -0.719264    1.478105
     49          1           0       -5.695006   -2.706884    1.412974
     50          6           0       -4.632693   -2.482591    1.499787
     51          6           0       -5.333590   -0.120762    1.168769
     52          7           0       -4.312912   -1.149330    1.387875
     53          1           0       -4.584749    4.082254   -2.293036
     54          1           0       -3.382861    3.953606   -1.197127
     55          1           0       -4.939799    3.871997   -0.714061
     56          1           0       -2.284683   -2.960096   -1.868118
     57          1           0       -3.908017   -2.535779   -2.176084
     58          7           0       -2.982366   -2.246270   -1.929951
     59          6           0       -2.692332   -0.964952   -1.694846
     60          6           0       -3.184527    1.354650   -1.497497
     61          7           0       -1.932722    1.714382   -1.168854
     62          1           0       -0.097415    0.851951   -0.871440
     63          6           0       -1.135381    0.648664   -1.131345
     64          7           0       -1.423984   -0.635466   -1.366498
     65          1           0       -6.327002    1.741298   -2.151365
     66          6           0       -5.323994    1.350222   -1.978176
     67          7           0       -4.990699    0.086126   -2.071124
     68          6           0       -3.636740    0.075022   -1.768770
     69          6           0       -4.298250    3.637382   -1.444505
     70          7           0       -4.279920    2.173985   -1.634582
 ---------------------------------------------------------------------

 SCF Done:  E(RwB97XD) =  -2048.72995282     A.U. after   15 cycles

 The electronic state is 1-A.
 Alpha  occ. eigenvalues --  -19.25545 -19.21685 -19.20319 -14.52774 -14.52148
 Alpha  occ. eigenvalues --  -14.48705 -14.48481 -14.48267 -14.47540 -14.46384
 Alpha  occ. eigenvalues --  -14.45702 -14.45335 -14.44401 -14.44029 -14.42535
 Alpha  occ. eigenvalues --  -14.41510 -14.41355 -14.41027 -14.40374 -14.40318
 Alpha  occ. eigenvalues --  -10.45159 -10.40546 -10.40135 -10.39814 -10.38203
 Alpha  occ. eigenvalues --  -10.37826 -10.37562 -10.37339 -10.35707 -10.35539
 Alpha  occ. eigenvalues --  -10.34592 -10.34522 -10.34028 -10.33787 -10.33320
 Alpha  occ. eigenvalues --  -10.33120 -10.32883 -10.32753 -10.30979 -10.30883
 Alpha  occ. eigenvalues --  -10.30507 -10.28506 -10.27578  -1.19199  -1.15437
 Alpha  occ. eigenvalues --   -1.12837  -1.12719  -1.11281  -1.10174  -1.09468
 Alpha  occ. eigenvalues --   -1.09025  -1.08063  -1.05113  -1.05004  -1.02172
 Alpha  occ. eigenvalues --   -1.01282  -1.00580  -0.99043  -0.98152  -0.97080
 Alpha  occ. eigenvalues --   -0.96849  -0.96148  -0.92796  -0.90781  -0.87894
 Alpha  occ. eigenvalues --   -0.86314  -0.83932  -0.83607  -0.83230  -0.82332
 Alpha  occ. eigenvalues --   -0.82067  -0.78602  -0.77247  -0.75182  -0.74132
 Alpha  occ. eigenvalues --   -0.73156  -0.73010  -0.72976  -0.71133  -0.70685
 Alpha  occ. eigenvalues --   -0.67118  -0.66825  -0.66398  -0.66204  -0.64583
 Alpha  occ. eigenvalues --   -0.64128  -0.63394  -0.62831  -0.62503  -0.61147
 Alpha  occ. eigenvalues --   -0.60895  -0.60568  -0.60552  -0.59703  -0.59282
 Alpha  occ. eigenvalues --   -0.59085  -0.57853  -0.56927  -0.56454  -0.56179
 Alpha  occ. eigenvalues --   -0.55811  -0.55686  -0.55493  -0.54708  -0.54357
 Alpha  occ. eigenvalues --   -0.53890  -0.53472  -0.53262  -0.53231  -0.52682
 Alpha  occ. eigenvalues --   -0.52509  -0.52042  -0.51801  -0.50850  -0.50232
 Alpha  occ. eigenvalues --   -0.49842  -0.49688  -0.49354  -0.49017  -0.48872
 Alpha  occ. eigenvalues --   -0.48440  -0.48070  -0.47886  -0.47199  -0.47038
 Alpha  occ. eigenvalues --   -0.46825  -0.45580  -0.44817  -0.44652  -0.43605
 Alpha  occ. eigenvalues --   -0.41240  -0.41025  -0.39271  -0.38031  -0.37865
 Alpha  occ. eigenvalues --   -0.37332  -0.36866  -0.36742  -0.35845  -0.34717
 Alpha  occ. eigenvalues --   -0.34454  -0.33647  -0.33581  -0.32861  -0.32322
 Alpha  occ. eigenvalues --   -0.32295  -0.32108  -0.31829  -0.31513  -0.30879
 Alpha  occ. eigenvalues --   -0.30534  -0.29966  -0.25920  -0.24478
 Alpha virt. eigenvalues --    0.03273   0.03750   0.06933   0.07765   0.08685
 Alpha virt. eigenvalues --    0.09576   0.09969   0.10375   0.11200   0.11802
 Alpha virt. eigenvalues --    0.12542   0.13965   0.14331   0.14949   0.15143

 Mulliken charges:
               1
     1  N   -0.314304
     2  C    0.181249
     3  C    0.053634
     4  N   -0.261579
     5  C    0.136679
     6  H    0.026583
     7  N   -0.289143
     8  C    0.143187
     9  H    0.009412
    10  N   -0.287712
    11  C    0.256313
    12  C    0.109130
    13  N   -0.058055
    14  H    0.108240
    15  H    0.083508
    16  H    0.024926
    17  H    0.030304
    18  H    0.027709
    19  N   -0.294115
    20  C    0.220440
    21  C    0.179868
    22  N   -0.072924
    23  H    0.112478
    24  H    0.108659
    25  N   -0.300637
    26  C    0.196569
    27  N   -0.148749
    28  H    0.128424
    29  C    0.172614
    30  O   -0.323739
    31  C    0.004632
    32  N   -0.223190
    33  C    0.132023
    34  H    0.016927
    35  H    0.029502
    36  H    0.026677
    37  H    0.023288
    38  H    0.063643
    39  H    0.057645
    40  H    0.066935
    41  H    0.029082
    42  C   -0.112419
    43  O   -0.264310
    44  C    0.173102
    45  H    0.131737
    46  N   -0.124126
    47  O   -0.338396
    48  C    0.337615
    49  H    0.046354
    50  C    0.166521
    51  C    0.038149
    52  N   -0.284785
    53  H    0.037605
    54  H    0.031156
    55  H    0.030279
    56  H    0.122868
    57  H    0.117503
    58  N   -0.061174
    59  C    0.085887
    60  C    0.266013
    61  N   -0.296506
    62  H    0.056401
    63  C    0.152807
    64  N   -0.297787
    65  H    0.036795
    66  C    0.131089
    67  N   -0.260605
    68  C    0.020470
    69  C    0.180629
    70  N   -0.309004
 Sum of Mulliken charges =  -0.00000

 Dipole moment (field-independent basis, Debye):
    X=             -7.9548    Y=              5.9737    Z=             -3.2701  Tot=             10.4717
 Quadrupole moment (field-independent basis, Debye-Ang):
   XX=           -152.9693   YY=           -221.1619   ZZ=           -256.1983
   XY=             -1.1820   XZ=             -0.8551   YZ=             11.2361

 Normal termination of Gaussian 16 at Tue Jan 23 19:23:42 2018.
