 Gaussian 16, Revision A.03,
 Gaussian 16:  EM64L-G16RevA.03 25-Dec-2016

 ---------------------------------------
 #p wb97xd/cc-pvdz sp scf=(maxcycles=20)
 ---------------------------------------

 ------------------
 Base pair stacking
 ------------------
 Symbolic Z-matrix:
 Charge =  0 Multiplicity = 1

                         Standard orientation:
 ---------------------------------------------------------------------
 Center     Atomic      Atomic             Coordinates (Angstroms)
 Number     Number       Type             X           Y           Z
 ---------------------------------------------------------------------
      1          7           0       -4.905119   -2.122936    1.539799
      2          6           0       -6.286661   -1.755227    1.906051
      3          6           0       -2.722386   -2.108164    1.270039
      4          7           0       -3.174368   -3.295196    0.712009
      5          6           0       -4.471294   -3.256588    0.896866
      6          1           0       -5.165996   -4.035526    0.581287
      7          7           0       -1.332910   -0.349781    2.005149
      8          6           0       -2.445856    0.240644    2.452736
      9          1           0       -2.298437    1.206203    2.934639
     10          7           0       -3.707641   -0.180600    2.394693
     11          6           0       -3.777732   -1.375117    1.784251
     12          6           0       -1.436843   -1.550904    1.395580
     13          7           0       -0.327015   -2.141859    0.948116
     14          1           0       -0.356742   -3.031315    0.490721
     15          1           0        0.571505   -1.715905    1.054772
     16          1           0       -6.665628   -2.447574    2.520231
     17          1           0       -6.285374   -0.867793    2.366017
     18          1           0       -6.849050   -1.700315    1.080996
     19          7           0       -4.581041    2.675383   -0.907875
     20          6           0       -3.230610    2.457895   -1.038663
     21          6           0       -5.209953    3.973430   -0.591274
     22          7           0        0.028164    3.657621   -0.985852
     23          1           0        0.949913    3.295146   -1.120848
     24          1           0       -0.049531    4.631951   -0.772830
     25          7           0       -2.259162    3.386008   -0.901044
     26          6           0       -1.055619    2.873193   -1.085767
     27          7           0       -0.819350    1.552746   -1.382627
     28          1           0        0.134063    1.248684   -1.507138
     29          6           0       -1.803562    0.580236   -1.528943
     30          8           0       -1.483490   -0.584258   -1.797730
     31          6           0       -3.101813    1.116128   -1.333380
     32          7           0       -4.346341    0.503568   -1.386535
     33          6           0       -5.191194    1.464718   -1.128424
     34          1           0       -6.274308    1.344778   -1.086415
     35          1           0       -5.727000    3.896246    0.260502
     36          1           0       -4.500059    4.668734   -0.487044
     37          1           0       -5.826485    4.236593   -1.332515
     38          1           0        5.115297    0.238199   -1.369501
     39          1           0        4.970647    0.327846   -3.123263
     40          1           0        3.929573    1.319644   -2.101560
     41          1           0        3.179614   -4.063654   -2.314869
     42          6           0        2.873319   -3.020462   -2.236281
     43          8           0        0.560331   -3.520390   -2.071059
     44          6           0        1.483216   -2.706828   -2.105594
     45          1           0        0.233047   -1.097158   -1.920197
     46          7           0        1.204602   -1.358061   -2.013673
     47          8           0        1.762530    0.842280   -1.947215
     48          6           0        2.106073   -0.323449   -2.035141
     49          1           0        4.845127   -2.218595   -2.357936
     50          6           0        3.776269   -2.033195   -2.260290
     51          6           0        4.426412    0.365058   -2.191332
     52          7           0        3.426754   -0.706222   -2.163639
     53          1           0        5.500411    3.431882    3.304017
     54          1           0        4.116532    3.661893    2.470899
     55          1           0        5.556979    3.913305    1.745663
     56          1           0        3.204510   -2.990304    0.380005
     57          1           0        4.854176   -2.595532    0.561288
     58          7           0        3.897158   -2.308543    0.615775
     59          6           0        3.560641   -1.071400    0.986483
     60          6           0        3.993383    1.159376    1.692211
     61          7           0        2.700131    1.516862    1.756449
     62          1           0        0.846829    0.701782    1.437818
     63          6           0        1.916247    0.496908    1.412770
     64          7           0        2.251368   -0.742933    1.041177
     65          1           0        7.200207    1.504676    1.914009
     66          6           0        6.184907    1.136558    1.763710
     67          7           0        5.882426   -0.078585    1.376896
     68          6           0        4.495963   -0.077531    1.327524
     69          6           0        5.063860    3.349265    2.408133
     70          7           0        5.090147    1.939354    1.972852
 ---------------------------------------------------------------------

 SCF Done:  E(RwB97XD) =  -2048.74501293     A.U. after   15 cycles

 The electronic state is 1-A.
 Alpha  occ. eigenvalues --  -19.25787 -19.22093 -19.20668 -14.52456 -14.52434
 Alpha  occ. eigenvalues --  -14.48998 -14.48404 -14.47867 -14.47694 -14.46997
 Alpha  occ. eigenvalues --  -14.46806 -14.45486 -14.44493 -14.44357 -14.42161
 Alpha  occ. eigenvalues --  -14.41912 -14.41153 -14.40442 -14.40375 -14.39890
 Alpha  occ. eigenvalues --  -10.45423 -10.41385 -10.40193 -10.40119 -10.38325
 Alpha  occ. eigenvalues --  -10.38062 -10.38030 -10.37247 -10.35858 -10.34961
 Alpha  occ. eigenvalues --  -10.34935 -10.34534 -10.33806 -10.33582 -10.33207
 Alpha  occ. eigenvalues --  -10.32764 -10.32625 -10.32582 -10.31110 -10.31074
 Alpha  occ. eigenvalues --  -10.30232 -10.28291 -10.27807  -1.19350  -1.15207
 Alpha  occ. eigenvalues --   -1.13314  -1.13089  -1.10757  -1.10474  -1.09597
 Alpha  occ. eigenvalues --   -1.09208  -1.08680  -1.04987  -1.04526  -1.02398
 Alpha  occ. eigenvalues --   -1.01016  -0.99933  -0.99873  -0.98689  -0.97005
 Alpha  occ. eigenvalues --   -0.96791  -0.96136  -0.92219  -0.91172  -0.87657
 Alpha  occ. eigenvalues --   -0.85882  -0.84306  -0.83508  -0.83190  -0.82684
 Alpha  occ. eigenvalues --   -0.81601  -0.78941  -0.77133  -0.74911  -0.74792
 Alpha  occ. eigenvalues --   -0.73775  -0.73316  -0.72300  -0.70556  -0.70398
 Alpha  occ. eigenvalues --   -0.67534  -0.66949  -0.66532  -0.65695  -0.64554
 Alpha  occ. eigenvalues --   -0.64339  -0.63876  -0.62777  -0.62125  -0.61920
 Alpha  occ. eigenvalues --   -0.60693  -0.60321  -0.60134  -0.59566  -0.59274
 Alpha  occ. eigenvalues --   -0.59251  -0.58502  -0.56796  -0.56037  -0.56000
 Alpha  occ. eigenvalues --   -0.55544  -0.55297  -0.54958  -0.54493  -0.54185
 Alpha  occ. eigenvalues --   -0.53773  -0.53702  -0.53583  -0.53196  -0.53091
 Alpha  occ. eigenvalues --   -0.52833  -0.52351  -0.51105  -0.50331  -0.50109
 Alpha  occ. eigenvalues --   -0.49931  -0.49569  -0.49462  -0.49295  -0.48965
 Alpha  occ. eigenvalues --   -0.48564  -0.48411  -0.48290  -0.47891  -0.47387
 Alpha  occ. eigenvalues --   -0.46327  -0.45799  -0.45545  -0.44282  -0.43493
 Alpha  occ. eigenvalues --   -0.40743  -0.40582  -0.39394  -0.37689  -0.37633
 Alpha  occ. eigenvalues --   -0.37454  -0.37434  -0.36460  -0.35868  -0.34866
 Alpha  occ. eigenvalues --   -0.34423  -0.34104  -0.33318  -0.32878  -0.32841
 Alpha  occ. eigenvalues --   -0.32672  -0.32650  -0.32379  -0.32008  -0.30252
 Alpha  occ. eigenvalues --   -0.29928  -0.29814  -0.25663  -0.25211
 Alpha virt. eigenvalues --    0.02473   0.04309   0.06672   0.08530   0.08868
 Alpha virt. eigenvalues --    0.09077   0.09635   0.10462   0.11456   0.11565
 Alpha virt. eigenvalues --    0.13368   0.14338   0.14564   0.15020   0.15109

 Mulliken charges:
               1
     1  N   -0.311815
     2  C    0.182187
     3  C    0.053593
     4  N   -0.255800
     5  C    0.142734
     6  H    0.025256
     7  N   -0.300044
     8  C    0.132890
     9  H    0.009021
    10  N   -0.288168
    11  C    0.255944
    12  C    0.097984
    13  N   -0.063558
    14  H    0.115520
    15  H    0.083915
    16  H    0.022114
    17  H    0.030492
    18  H    0.026816
    19  N   -0.310878
    20  C    0.254527
    21  C    0.180838
    22  N   -0.123075
    23  H    0.117353
    24  H    0.118068
    25  N   -0.312206
    26  C    0.249555
    27  N   -0.149529
    28  H    0.119601
    29  C    0.197277
    30  O   -0.321023
    31  C   -0.015606
    32  N   -0.228048
    33  C    0.127827
    34  H    0.021749
    35  H    0.028773
    36  H    0.029663
    37  H    0.024736
    38  H    0.064267
    39  H    0.059506
    40  H    0.074191
    41  H    0.026936
    42  C   -0.133273
    43  O   -0.265948
    44  C    0.170664
    45  H    0.131804
    46  N   -0.121394
    47  O   -0.346781
    48  C    0.345718
    49  H    0.043751
    50  C    0.172775
    51  C    0.036281
    52  N   -0.276424
    53  H    0.034139
    54  H    0.041956
    55  H    0.028697
    56  H    0.121506
    57  H    0.113728
    58  N   -0.056199
    59  C    0.096027
    60  C    0.253518
    61  N   -0.274150
    62  H    0.035535
    63  C    0.175942
    64  N   -0.316581
    65  H    0.038633
    66  C    0.137627
    67  N   -0.266561
    68  C    0.016457
    69  C    0.180489
    70  N   -0.311521
 Sum of Mulliken charges =  -0.00000

 Dipole moment (field-independent basis, Debye):
    X=              8.2119    Y=              6.9446    Z=              0.6244  Tot=             10.7728
 Quadrupole moment (field-independent basis, Debye-Ang):
   XX=           -159.8219   YY=           -217.8750   ZZ=           -250.7807
   XY=             -1.9220   XZ=            -10.6820   YZ=             -2.6576

 Normal termination of Gaussian 16 at Tue Jan 23 21:54:15 2018.
