 Gaussian 16, Revision A.03,
 Gaussian 16:  EM64L-G16RevA.03 25-Dec-2016

 ---------------------------------------
 #p wb97xd/cc-pvdz sp scf=(maxcycles=20)
 ---------------------------------------

 ------------------
 Base pair stacking
 ------------------
 Symbolic Z-matrix:
 Charge =  0 Multiplicity = 1

                         Standard orientation:
 ---------------------------------------------------------------------
 Center     Atomic      Atomic             Coordinates (Angstroms)
 Number     Number       Type             X           Y           Z
 ---------------------------------------------------------------------
      1          7           0       -7.152105   -1.435997    0.156500
      2          6           0       -8.513081   -0.909051   -0.062784
      3          6           0       -4.994950   -1.599401    0.553107
      4          7           0       -5.455379   -2.895416    0.371292
      5          6           0       -6.736563   -2.745109    0.139630
      6          1           0       -7.432107   -3.562732   -0.051780
      7          7           0       -3.601444    0.261063    0.952827
      8          6           0       -4.694407    1.016014    0.800950
      9          1           0       -4.537510    2.088395    0.908945
     10          7           0       -5.946187    0.646919    0.536931
     11          6           0       -6.029337   -0.689000    0.423663
     12          6           0       -3.718095   -1.079493    0.832877
     13          7           0       -2.628226   -1.834784    0.984142
     14          1           0       -2.667941   -2.831380    0.903862
     15          1           0       -1.735363   -1.430442    1.182746
     16          1           0       -9.133144   -1.287048    0.624835
     17          1           0       -8.501501    0.087625    0.012172
     18          1           0       -8.830668   -1.169392   -0.974570
     19          7           0       -2.151226    2.522303   -1.706457
     20          6           0       -0.835867    2.225455   -1.442286
     21          6           0       -2.768576    3.857125   -1.572976
     22          7           0        2.331391    3.233398   -0.435184
     23          1           0        3.230053    2.816780   -0.300748
     24          1           0        2.251869    4.212138   -0.244231
     25          7           0        0.106020    3.096310   -1.019797
     26          6           0        1.279575    2.512809   -0.852732
     27          7           0        1.514826    1.178682   -1.081380
     28          1           0        2.444083    0.818602   -0.927141
     29          6           0        0.560690    0.264186   -1.516323
     30          8           0        0.876891   -0.918950   -1.692255
     31          6           0       -0.705157    0.876320   -1.700240
     32          7           0       -1.914111    0.337026   -2.117949
     33          6           0       -2.740313    1.347695   -2.106364
     34          1           0       -3.794118    1.291463   -2.381336
     35          1           0       -3.513972    3.816515   -0.908478
     36          1           0       -2.080359    4.510583   -1.260569
     37          1           0       -3.127349    4.150328   -2.458485
     38          1           0        7.104063   -0.479690    0.638658
     39          1           0        7.479623   -0.394695   -1.080756
     40          1           0        6.246332    0.663651   -0.394996
     41          1           0        5.279733   -4.668155   -0.869690
     42          6           0        5.024811   -3.608320   -0.872973
     43          8           0        2.738384   -3.971247   -1.390326
     44          6           0        3.677162   -3.213180   -1.147793
     45          1           0        2.522441   -1.531999   -1.316906
     46          7           0        3.462529   -1.849813   -1.127284
     47          8           0        4.103775    0.314670   -0.880219
     48          6           0        4.389876   -0.869730   -0.876278
     49          1           0        6.990193   -2.923757   -0.409858
     50          6           0        5.951570   -2.675608   -0.624440
     51          6           0        6.691651   -0.318925   -0.346297
     52          7           0        5.666569   -1.329825   -0.620166
     53          1           0        3.142123    4.027455    2.690866
     54          1           0        2.066966    3.950582    1.466031
     55          1           0        3.666039    3.846347    1.155895
     56          1           0        0.769441   -2.951288    1.834736
     57          1           0        2.356398   -2.569733    2.330800
     58          7           0        1.469457   -2.254464    1.991451
     59          6           0        1.231784   -0.962005    1.758590
     60          6           0        1.786993    1.350283    1.676135
     61          7           0        0.586458    1.744763    1.220599
     62          1           0       -1.220661    0.929688    0.700422
     63          6           0       -0.221981    0.697833    1.068060
     64          7           0        0.014191   -0.597411    1.300745
     65          1           0        4.844359    1.653023    2.682641
     66          6           0        3.859480    1.288042    2.389838
     67          7           0        3.493870    0.029687    2.413073
     68          6           0        2.181838    0.055130    1.962892
     69          6           0        2.943070    3.608816    1.804805
     70          7           0        2.875869    2.142135    1.954229
 ---------------------------------------------------------------------

 SCF Done:  E(RwB97XD) =  -2048.67772956     A.U. after   15 cycles

 The electronic state is 1-A.
 Alpha  occ. eigenvalues --  -19.25938 -19.22016 -19.20575 -14.52484 -14.51716
 Alpha  occ. eigenvalues --  -14.49358 -14.48767 -14.47933 -14.46950 -14.46856
 Alpha  occ. eigenvalues --  -14.46424 -14.44516 -14.42977 -14.42757 -14.42449
 Alpha  occ. eigenvalues --  -14.42053 -14.41700 -14.41568 -14.40777 -14.40774
 Alpha  occ. eigenvalues --  -10.45563 -10.41359 -10.40142 -10.38722 -10.38206
 Alpha  occ. eigenvalues --  -10.37821 -10.37148 -10.36031 -10.35961 -10.35445
 Alpha  occ. eigenvalues --  -10.34703 -10.34329 -10.34307 -10.34010 -10.33765
 Alpha  occ. eigenvalues --  -10.33390 -10.33346 -10.31566 -10.31401 -10.31121
 Alpha  occ. eigenvalues --  -10.30836 -10.29199 -10.28222  -1.19491  -1.14639
 Alpha  occ. eigenvalues --   -1.13244  -1.13043  -1.11967  -1.10621  -1.09372
 Alpha  occ. eigenvalues --   -1.09015  -1.08064  -1.05613  -1.03608  -1.02555
 Alpha  occ. eigenvalues --   -1.01452  -1.01046  -0.99438  -0.98492  -0.97550
 Alpha  occ. eigenvalues --   -0.96586  -0.95675  -0.93260  -0.91090  -0.87080
 Alpha  occ. eigenvalues --   -0.85577  -0.84533  -0.84067  -0.83773  -0.82871
 Alpha  occ. eigenvalues --   -0.82543  -0.78921  -0.76068  -0.74788  -0.74197
 Alpha  occ. eigenvalues --   -0.73751  -0.73515  -0.73416  -0.71696  -0.69518
 Alpha  occ. eigenvalues --   -0.67955  -0.66898  -0.66633  -0.65942  -0.64549
 Alpha  occ. eigenvalues --   -0.63947  -0.63675  -0.63278  -0.62896  -0.62588
 Alpha  occ. eigenvalues --   -0.60783  -0.60039  -0.59855  -0.59596  -0.59524
 Alpha  occ. eigenvalues --   -0.59024  -0.58575  -0.57106  -0.56913  -0.56851
 Alpha  occ. eigenvalues --   -0.56052  -0.55912  -0.55315  -0.54555  -0.54266
 Alpha  occ. eigenvalues --   -0.53701  -0.53420  -0.53236  -0.52707  -0.52581
 Alpha  occ. eigenvalues --   -0.52260  -0.52198  -0.51939  -0.51322  -0.50752
 Alpha  occ. eigenvalues --   -0.50154  -0.49675  -0.49481  -0.49023  -0.48815
 Alpha  occ. eigenvalues --   -0.48582  -0.48318  -0.48026  -0.47594  -0.47519
 Alpha  occ. eigenvalues --   -0.47417  -0.45661  -0.45388  -0.44045  -0.42580
 Alpha  occ. eigenvalues --   -0.41816  -0.39602  -0.39412  -0.37824  -0.37569
 Alpha  occ. eigenvalues --   -0.37205  -0.36570  -0.36293  -0.35818  -0.35097
 Alpha  occ. eigenvalues --   -0.34150  -0.34059  -0.33229  -0.33159  -0.32763
 Alpha  occ. eigenvalues --   -0.32492  -0.32078  -0.31967  -0.31842  -0.31546
 Alpha  occ. eigenvalues --   -0.30978  -0.28683  -0.26413  -0.25048
 Alpha virt. eigenvalues --    0.03096   0.04706   0.07255   0.07651   0.08306
 Alpha virt. eigenvalues --    0.09391   0.09792   0.10316   0.11006   0.12460
 Alpha virt. eigenvalues --    0.12771   0.13548   0.14238   0.14552   0.14745

 Mulliken charges:
               1
     1  N   -0.311423
     2  C    0.180831
     3  C    0.032487
     4  N   -0.259328
     5  C    0.134866
     6  H    0.028618
     7  N   -0.285282
     8  C    0.121234
     9  H    0.013313
    10  N   -0.286771
    11  C    0.242297
    12  C    0.121800
    13  N   -0.055294
    14  H    0.107468
    15  H    0.088527
    16  H    0.026587
    17  H    0.035272
    18  H    0.027102
    19  N   -0.305546
    20  C    0.221015
    21  C    0.182825
    22  N   -0.100009
    23  H    0.120138
    24  H    0.110065
    25  N   -0.260465
    26  C    0.177280
    27  N   -0.099932
    28  H    0.118967
    29  C    0.144704
    30  O   -0.320353
    31  C   -0.003507
    32  N   -0.218675
    33  C    0.129792
    34  H    0.031389
    35  H    0.026521
    36  H    0.027510
    37  H    0.024840
    38  H    0.061065
    39  H    0.060299
    40  H    0.070756
    41  H    0.031699
    42  C   -0.112555
    43  O   -0.266379
    44  C    0.177360
    45  H    0.135122
    46  N   -0.139194
    47  O   -0.351289
    48  C    0.366927
    49  H    0.047887
    50  C    0.173975
    51  C    0.042644
    52  N   -0.296503
    53  H    0.019489
    54  H    0.040102
    55  H   -0.008949
    56  H    0.121583
    57  H    0.116013
    58  N   -0.064754
    59  C    0.116450
    60  C    0.218286
    61  N   -0.258742
    62  H    0.059427
    63  C    0.150387
    64  N   -0.297893
    65  H    0.027719
    66  C    0.129263
    67  N   -0.264038
    68  C    0.028660
    69  C    0.208651
    70  N   -0.312330
 Sum of Mulliken charges =  -0.00000

 Dipole moment (field-independent basis, Debye):
    X=              7.1223    Y=              5.4765    Z=              3.2326  Tot=              9.5482
 Quadrupole moment (field-independent basis, Debye-Ang):
   XX=           -143.5869   YY=           -222.6701   ZZ=           -253.4664
   XY=              6.8448   XZ=             14.4928   YZ=            -11.1348

 Normal termination of Gaussian 16 at Tue Jan 23 18:37:47 2018.
