 Gaussian 16, Revision A.03,
 Gaussian 16:  EM64L-G16RevA.03 25-Dec-2016

 ---------------------------------------
 #p wb97xd/cc-pvdz sp scf=(maxcycles=20)
 ---------------------------------------

 ------------------
 Base pair stacking
 ------------------
 Symbolic Z-matrix:
 Charge =  0 Multiplicity = 1

                         Standard orientation:
 ---------------------------------------------------------------------
 Center     Atomic      Atomic             Coordinates (Angstroms)
 Number     Number       Type             X           Y           Z
 ---------------------------------------------------------------------
      1          7           0        4.567671   -2.180773   -1.717897
      2          6           0        5.940695   -1.831803   -2.131453
      3          6           0        2.396656   -2.134083   -1.368865
      4          7           0        2.849676   -3.332322   -0.836218
      5          6           0        4.139502   -3.312495   -1.067811
      6          1           0        4.832741   -4.104598   -0.783318
      7          7           0        1.009522   -0.348581   -2.040283
      8          6           0        2.114740    0.227892   -2.523770
      9          1           0        1.965287    1.199342   -2.993009
     10          7           0        3.370948   -0.213411   -2.514666
     11          6           0        3.444170   -1.413594   -1.915798
     12          6           0        1.116404   -1.555894   -1.443582
     13          7           0        0.014285   -2.132944   -0.960345
     14          1           0        0.046463   -3.026279   -0.510750
     15          1           0       -0.880638   -1.692221   -1.031186
     16          1           0        6.286135   -2.525162   -2.763991
     17          1           0        5.936817   -0.940904   -2.584658
     18          1           0        6.533405   -1.792085   -1.327022
     19          7           0        4.903353    2.590031    0.745184
     20          6           0        3.555275    2.392615    0.923410
     21          6           0        5.540886    3.880543    0.415301
     22          7           0        0.316160    3.643362    0.997732
     23          1           0       -0.605726    3.294247    1.163537
     24          1           0        0.401526    4.617980    0.789069
     25          7           0        2.594317    3.336799    0.827880
     26          6           0        1.390271    2.841374    1.052527
     27          7           0        1.144010    1.522508    1.348258
     28          1           0        0.191026    1.232375    1.505138
     29          6           0        2.117331    0.533667    1.451685
     30          8           0        1.788779   -0.627753    1.723514
     31          6           0        3.415979    1.050765    1.212930
     32          7           0        4.651740    0.418478    1.216394
     33          6           0        5.501823    1.368323    0.934682
     34          1           0        6.580667    1.231857    0.852456
     35          1           0        6.025446    3.801941   -0.455232
     36          1           0        4.838801    4.587617    0.341970
     37          1           0        6.187969    4.128287    1.135529
     38          1           0       -4.807319    0.300760    1.541372
     39          1           0       -4.597820    0.374482    3.289328
     40          1           0       -3.578850    1.357854    2.237637
     41          1           0       -2.907115   -4.037967    2.384717
     42          6           0       -2.587368   -2.999105    2.302573
     43          8           0       -0.290106   -3.533720    2.049774
     44          6           0       -1.198112   -2.706157    2.123698
     45          1           0        0.069887   -1.114784    1.904604
     46          7           0       -0.901657   -1.361222    2.031440
     47          8           0       -1.426665    0.847989    2.001185
     48          6           0       -1.785239   -0.312884    2.093122
     49          1           0       -4.540508   -2.167564    2.501591
     50          6           0       -3.473085   -1.998101    2.366507
     51          6           0       -4.087182    0.410467    2.338523
     52          7           0       -3.106297   -0.676016    2.266786
     53          1           0       -5.805547    3.549112   -3.062600
     54          1           0       -4.388917    3.751045   -2.278708
     55          1           0       -5.797977    4.019216   -1.499797
     56          1           0       -3.507345   -2.930640   -0.270364
     57          1           0       -5.156028   -2.508805   -0.388712
     58          7           0       -4.197181   -2.236352   -0.475878
     59          6           0       -3.854740   -1.001756   -0.849643
     60          6           0       -4.277333    1.240927   -1.523069
     61          7           0       -2.981756    1.578693   -1.631694
     62          1           0       -1.131283    0.732381   -1.386536
     63          6           0       -2.202208    0.544002   -1.324100
     64          7           0       -2.543265   -0.693320   -0.949521
     65          1           0       -7.484221    1.637878   -1.625655
     66          6           0       -6.470102    1.252818   -1.515032
     67          7           0       -6.173113    0.030134   -1.148242
     68          6           0       -4.785927    0.009194   -1.149284
     69          6           0       -5.338191    3.452731   -2.183804
     70          7           0       -5.371042    2.040056   -1.758025
 ---------------------------------------------------------------------

 SCF Done:  E(RwB97XD) =  -2048.74591345     A.U. after   15 cycles

 The electronic state is 1-A.
 Alpha  occ. eigenvalues --  -19.25687 -19.21905 -19.20711 -14.52458 -14.52318
 Alpha  occ. eigenvalues --  -14.49099 -14.48629 -14.47785 -14.47567 -14.47016
 Alpha  occ. eigenvalues --  -14.46842 -14.45469 -14.44706 -14.44498 -14.42212
 Alpha  occ. eigenvalues --  -14.42113 -14.41293 -14.40426 -14.40354 -14.39995
 Alpha  occ. eigenvalues --  -10.45301 -10.41428 -10.40278 -10.40028 -10.38371
 Alpha  occ. eigenvalues --  -10.38037 -10.37987 -10.37336 -10.36001 -10.35067
 Alpha  occ. eigenvalues --  -10.34867 -10.34616 -10.33810 -10.33707 -10.33137
 Alpha  occ. eigenvalues --  -10.32864 -10.32622 -10.32617 -10.31196 -10.31000
 Alpha  occ. eigenvalues --  -10.30063 -10.28375 -10.27829  -1.19231  -1.15251
 Alpha  occ. eigenvalues --   -1.13365  -1.12927  -1.10843  -1.10421  -1.09692
 Alpha  occ. eigenvalues --   -1.09137  -1.08722  -1.05127  -1.04615  -1.02261
 Alpha  occ. eigenvalues --   -1.01048  -1.00040  -0.99917  -0.98749  -0.97148
 Alpha  occ. eigenvalues --   -0.96882  -0.96091  -0.92314  -0.91068  -0.87739
 Alpha  occ. eigenvalues --   -0.85920  -0.84393  -0.83412  -0.83150  -0.82765
 Alpha  occ. eigenvalues --   -0.81535  -0.78806  -0.77232  -0.75020  -0.74860
 Alpha  occ. eigenvalues --   -0.73817  -0.73204  -0.72334  -0.70638  -0.70436
 Alpha  occ. eigenvalues --   -0.67586  -0.67048  -0.66435  -0.65737  -0.64559
 Alpha  occ. eigenvalues --   -0.64410  -0.63841  -0.62804  -0.62176  -0.61977
 Alpha  occ. eigenvalues --   -0.60761  -0.60366  -0.60078  -0.59507  -0.59328
 Alpha  occ. eigenvalues --   -0.59218  -0.58543  -0.56882  -0.56054  -0.55958
 Alpha  occ. eigenvalues --   -0.55411  -0.55345  -0.55059  -0.54565  -0.54291
 Alpha  occ. eigenvalues --   -0.53777  -0.53711  -0.53636  -0.53181  -0.52934
 Alpha  occ. eigenvalues --   -0.52871  -0.52261  -0.51043  -0.50370  -0.50129
 Alpha  occ. eigenvalues --   -0.49954  -0.49588  -0.49474  -0.49337  -0.48970
 Alpha  occ. eigenvalues --   -0.48494  -0.48314  -0.48241  -0.47990  -0.47369
 Alpha  occ. eigenvalues --   -0.46319  -0.45749  -0.45539  -0.44378  -0.43522
 Alpha  occ. eigenvalues --   -0.40797  -0.40674  -0.39322  -0.37869  -0.37724
 Alpha  occ. eigenvalues --   -0.37537  -0.37484  -0.36453  -0.35727  -0.35021
 Alpha  occ. eigenvalues --   -0.34557  -0.34177  -0.33235  -0.32900  -0.32822
 Alpha  occ. eigenvalues --   -0.32792  -0.32614  -0.32115  -0.32056  -0.30238
 Alpha  occ. eigenvalues --   -0.30121  -0.29922  -0.25791  -0.25240
 Alpha virt. eigenvalues --    0.02754   0.04144   0.06673   0.08476   0.08812
 Alpha virt. eigenvalues --    0.09028   0.09588   0.10450   0.11394   0.11517
 Alpha virt. eigenvalues --    0.13555   0.14255   0.14443   0.15060   0.15154

 Mulliken charges:
               1
     1  N   -0.311189
     2  C    0.182734
     3  C    0.054285
     4  N   -0.254069
     5  C    0.145270
     6  H    0.025887
     7  N   -0.299738
     8  C    0.130943
     9  H    0.009201
    10  N   -0.285907
    11  C    0.256047
    12  C    0.093076
    13  N   -0.068611
    14  H    0.115661
    15  H    0.084032
    16  H    0.020993
    17  H    0.030070
    18  H    0.028549
    19  N   -0.310985
    20  C    0.255429
    21  C    0.180967
    22  N   -0.124054
    23  H    0.118493
    24  H    0.118471
    25  N   -0.312656
    26  C    0.250458
    27  N   -0.148916
    28  H    0.120378
    29  C    0.196291
    30  O   -0.320116
    31  C   -0.014005
    32  N   -0.230758
    33  C    0.125838
    34  H    0.022378
    35  H    0.028220
    36  H    0.030108
    37  H    0.025093
    38  H    0.065506
    39  H    0.059197
    40  H    0.075165
    41  H    0.026565
    42  C   -0.130920
    43  O   -0.263977
    44  C    0.169681
    45  H    0.133191
    46  N   -0.123730
    47  O   -0.350327
    48  C    0.352884
    49  H    0.041509
    50  C    0.173375
    51  C    0.035963
    52  N   -0.277989
    53  H    0.034077
    54  H    0.042060
    55  H    0.029243
    56  H    0.118076
    57  H    0.116233
    58  N   -0.061911
    59  C    0.093549
    60  C    0.251183
    61  N   -0.272459
    62  H    0.034952
    63  C    0.176973
    64  N   -0.316918
    65  H    0.039204
    66  C    0.139024
    67  N   -0.263746
    68  C    0.017502
    69  C    0.180475
    70  N   -0.311479
 Sum of Mulliken charges =  -0.00000

 Dipole moment (field-independent basis, Debye):
    X=             -8.0791    Y=              7.1338    Z=             -0.2748  Tot=             10.7814
 Quadrupole moment (field-independent basis, Debye-Ang):
   XX=           -162.3789   YY=           -217.7935   ZZ=           -249.7031
   XY=              2.7828   XZ=            -14.0684   YZ=              2.9113

 Normal termination of Gaussian 16 at Tue Jan 23 22:39:58 2018.
