 Gaussian 16, Revision A.03,
 Gaussian 16:  EM64L-G16RevA.03 25-Dec-2016

 ---------------------------------------
 #p wb97xd/cc-pvdz sp scf=(maxcycles=20)
 ---------------------------------------

 ------------------
 Base pair stacking
 ------------------
 Symbolic Z-matrix:
 Charge =  0 Multiplicity = 1

                         Standard orientation:
 ---------------------------------------------------------------------
 Center     Atomic      Atomic             Coordinates (Angstroms)
 Number     Number       Type             X           Y           Z
 ---------------------------------------------------------------------
      1          7           0        4.274134   -1.847234   -1.867055
      2          6           0        5.669942   -1.407744   -2.058310
      3          6           0        2.087089   -1.874574   -1.635958
      4          7           0        2.503734   -3.194581   -1.542558
      5          6           0        3.804679   -3.125276   -1.685519
      6          1           0        4.477057   -3.983460   -1.666702
      7          7           0        0.748379    0.066309   -1.697506
      8          6           0        1.881819    0.749764   -1.886682
      9          1           0        1.763616    1.827917   -1.986150
     10          7           0        3.133459    0.303474   -1.971040
     11          6           0        3.167158   -1.032587   -1.835997
     12          6           0        0.815784   -1.276473   -1.565295
     13          7           0       -0.314540   -1.960462   -1.376387
     14          1           0       -0.311959   -2.955757   -1.273437
     15          1           0       -1.201982   -1.501599   -1.331351
     16          1           0        6.047403   -1.839291   -2.877744
     17          1           0        5.695800   -0.414132   -2.164054
     18          1           0        6.216385   -1.670981   -1.263263
     19          7           0        5.199385    2.341045    0.695999
     20          6           0        3.848006    2.127212    0.822835
     21          6           0        5.830645    3.629076    0.345031
     22          7           0        0.589648    3.323751    0.708285
     23          1           0       -0.333107    2.965241    0.847064
     24          1           0        0.668914    4.291176    0.466390
     25          7           0        2.877576    3.050407    0.649546
     26          6           0        1.672676    2.543053    0.840391
     27          7           0        1.434209    1.232161    1.175373
     28          1           0        0.479877    0.931708    1.301641
     29          6           0        2.417336    0.264847    1.358796
     30          8           0        2.095264   -0.891050    1.660315
     31          6           0        3.717027    0.794962    1.157144
     32          7           0        4.961147    0.184690    1.238545
     33          6           0        5.807902    1.137825    0.957949
     34          1           0        6.891316    1.017015    0.928020
     35          1           0        6.354306    3.526231   -0.499963
     36          1           0        5.121526    4.320673    0.214221
     37          1           0        6.441369    3.914818    1.082708
     38          1           0       -4.500055   -0.084060    1.156033
     39          1           0       -4.369056    0.058846    2.907337
     40          1           0       -3.320151    1.019486    1.864117
     41          1           0       -2.571431   -4.354607    2.246611
     42          6           0       -2.264627   -3.314190    2.138763
     43          8           0        0.049614   -3.818172    2.006785
     44          6           0       -0.873575   -3.004226    2.009417
     45          1           0        0.377872   -1.400539    1.784959
     46          7           0       -0.594361   -1.658790    1.878757
     47          8           0       -1.151932    0.538347    1.741183
     48          6           0       -1.496052   -0.624282    1.861789
     49          1           0       -4.237378   -2.509622    2.220685
     50          6           0       -3.167819   -2.326932    2.125764
     51          6           0       -3.817593    0.067921    1.978964
     52          7           0       -2.817654   -1.003395    1.991582
     53          1           0       -5.979935    4.238202   -1.612108
     54          1           0       -4.608995    4.113697   -0.736258
     55          1           0       -6.058604    4.121933    0.013843
     56          1           0       -3.873192   -2.864962   -1.197077
     57          1           0       -5.510578   -2.388441   -1.241683
     58          7           0       -4.547092   -2.126314   -1.176878
     59          6           0       -4.178384   -0.848250   -1.068351
     60          6           0       -4.551893    1.496979   -0.919537
     61          7           0       -3.250694    1.819531   -0.834245
     62          1           0       -1.420966    0.896376   -0.812164
     63          6           0       -2.494568    0.724339   -0.875856
     64          7           0       -2.861951   -0.556597   -0.984522
     65          1           0       -7.745971    1.982712   -1.038100
     66          6           0       -6.741521    1.558817   -1.020090
     67          7           0       -6.471384    0.278738   -1.098134
     68          6           0       -5.086465    0.225630   -1.035534
     69          6           0       -5.563486    3.824426   -0.802575
     70          7           0       -5.626867    2.353912   -0.910144
 ---------------------------------------------------------------------

 SCF Done:  E(RwB97XD) =  -2048.74649743     A.U. after   15 cycles

 The electronic state is 1-A.
 Alpha  occ. eigenvalues --  -19.25130 -19.21178 -19.20524 -14.52741 -14.51558
 Alpha  occ. eigenvalues --  -14.49148 -14.48955 -14.48267 -14.47040 -14.46624
 Alpha  occ. eigenvalues --  -14.46544 -14.45663 -14.45141 -14.44989 -14.43150
 Alpha  occ. eigenvalues --  -14.41997 -14.41245 -14.41112 -14.40974 -14.40684
 Alpha  occ. eigenvalues --  -10.44658 -10.41124 -10.40718 -10.39308 -10.38229
 Alpha  occ. eigenvalues --  -10.38119 -10.37688 -10.37171 -10.36445 -10.35841
 Alpha  occ. eigenvalues --  -10.34353 -10.34067 -10.33885 -10.33705 -10.33634
 Alpha  occ. eigenvalues --  -10.33201 -10.33177 -10.33172 -10.31105 -10.30483
 Alpha  occ. eigenvalues --  -10.30132 -10.28510 -10.28134  -1.18682  -1.15558
 Alpha  occ. eigenvalues --   -1.13126  -1.12210  -1.10960  -1.10666  -1.10095
 Alpha  occ. eigenvalues --   -1.08546  -1.08417  -1.05556  -1.05347  -1.01661
 Alpha  occ. eigenvalues --   -1.01315  -1.00846  -0.99616  -0.98515  -0.97601
 Alpha  occ. eigenvalues --   -0.96723  -0.96628  -0.93047  -0.90351  -0.88142
 Alpha  occ. eigenvalues --   -0.86228  -0.84208  -0.83681  -0.82780  -0.82566
 Alpha  occ. eigenvalues --   -0.81903  -0.78143  -0.77588  -0.75426  -0.74632
 Alpha  occ. eigenvalues --   -0.73531  -0.72996  -0.72591  -0.71157  -0.70935
 Alpha  occ. eigenvalues --   -0.67402  -0.67313  -0.66382  -0.65831  -0.64765
 Alpha  occ. eigenvalues --   -0.64265  -0.63351  -0.62861  -0.62501  -0.61728
 Alpha  occ. eigenvalues --   -0.61084  -0.60763  -0.60415  -0.59895  -0.59028
 Alpha  occ. eigenvalues --   -0.58859  -0.58234  -0.56923  -0.56598  -0.55900
 Alpha  occ. eigenvalues --   -0.55655  -0.55608  -0.55536  -0.55036  -0.54102
 Alpha  occ. eigenvalues --   -0.53934  -0.53697  -0.53231  -0.53175  -0.52895
 Alpha  occ. eigenvalues --   -0.51873  -0.51667  -0.51440  -0.50473  -0.50392
 Alpha  occ. eigenvalues --   -0.50108  -0.49971  -0.49545  -0.48988  -0.48904
 Alpha  occ. eigenvalues --   -0.48724  -0.47972  -0.47886  -0.47558  -0.47020
 Alpha  occ. eigenvalues --   -0.46832  -0.45551  -0.45455  -0.44805  -0.43217
 Alpha  occ. eigenvalues --   -0.41403  -0.41132  -0.38915  -0.38238  -0.38102
 Alpha  occ. eigenvalues --   -0.37355  -0.37249  -0.37072  -0.35463  -0.35184
 Alpha  occ. eigenvalues --   -0.35028  -0.34128  -0.33545  -0.33382  -0.32912
 Alpha  occ. eigenvalues --   -0.32558  -0.32316  -0.31838  -0.31052  -0.30700
 Alpha  occ. eigenvalues --   -0.30581  -0.30478  -0.26276  -0.25224
 Alpha virt. eigenvalues --    0.03412   0.03848   0.06383   0.07883   0.08966
 Alpha virt. eigenvalues --    0.09230   0.09789   0.10156   0.10717   0.11730
 Alpha virt. eigenvalues --    0.13588   0.14286   0.14513   0.14623   0.14677

 Mulliken charges:
               1
     1  N   -0.308892
     2  C    0.182969
     3  C    0.066945
     4  N   -0.260775
     5  C    0.148133
     6  H    0.028728
     7  N   -0.288533
     8  C    0.119887
     9  H    0.015943
    10  N   -0.271705
    11  C    0.250254
    12  C    0.077716
    13  N   -0.069010
    14  H    0.112348
    15  H    0.081966
    16  H    0.020015
    17  H    0.029754
    18  H    0.033618
    19  N   -0.310337
    20  C    0.261315
    21  C    0.182101
    22  N   -0.116618
    23  H    0.123687
    24  H    0.117143
    25  N   -0.304178
    26  C    0.216014
    27  N   -0.121910
    28  H    0.117675
    29  C    0.165441
    30  O   -0.318671
    31  C    0.003694
    32  N   -0.233655
    33  C    0.118675
    34  H    0.021529
    35  H    0.026243
    36  H    0.030105
    37  H    0.024661
    38  H    0.067893
    39  H    0.055384
    40  H    0.078037
    41  H    0.025850
    42  C   -0.117885
    43  O   -0.261875
    44  C    0.172906
    45  H    0.135380
    46  N   -0.126841
    47  O   -0.348674
    48  C    0.351709
    49  H    0.041593
    50  C    0.165422
    51  C    0.037113
    52  N   -0.277113
    53  H    0.034561
    54  H    0.039500
    55  H    0.031251
    56  H    0.118595
    57  H    0.120810
    58  N   -0.064637
    59  C    0.067497
    60  C    0.232299
    61  N   -0.266050
    62  H    0.021210
    63  C    0.174616
    64  N   -0.305661
    65  H    0.040612
    66  C    0.140033
    67  N   -0.256782
    68  C    0.029825
    69  C    0.180973
    70  N   -0.309825
 Sum of Mulliken charges =  -0.00000

 Dipole moment (field-independent basis, Debye):
    X=             -8.0686    Y=              6.7458    Z=             -1.5083  Tot=             10.6246
 Quadrupole moment (field-independent basis, Debye-Ang):
   XX=           -164.9329   YY=           -219.4827   ZZ=           -252.1704
   XY=              6.6154   XZ=            -18.1243   YZ=             10.6273

 Normal termination of Gaussian 16 at Tue Jan 23 18:49:21 2018.
