 Gaussian 16, Revision A.03,
 Gaussian 16:  EM64L-G16RevA.03 25-Dec-2016

 ---------------------------------------
 #p wb97xd/cc-pvdz sp scf=(maxcycles=20)
 ---------------------------------------

 ------------------
 Base pair stacking
 ------------------
 Symbolic Z-matrix:
 Charge =  0 Multiplicity = 1

                         Standard orientation:
 ---------------------------------------------------------------------
 Center     Atomic      Atomic             Coordinates (Angstroms)
 Number     Number       Type             X           Y           Z
 ---------------------------------------------------------------------
      1          7           0       -5.546324   -1.834625    1.207292
      2          6           0       -6.940781   -1.378179    1.365908
      3          6           0       -3.348904   -1.918374    1.166467
      4          7           0       -3.792550   -3.167805    0.758019
      5          6           0       -5.098661   -3.067334    0.798960
      6          1           0       -5.790593   -3.869063    0.539334
      7          7           0       -1.966885   -0.100400    1.756319
      8          6           0       -3.093059    0.582082    1.987689
      9          1           0       -2.953915    1.608436    2.324577
     10          7           0       -4.359359    0.188934    1.865976
     11          6           0       -4.418459   -1.085925    1.446835
     12          6           0       -2.059982   -1.380778    1.335570
     13          7           0       -0.936946   -2.063688    1.104077
     14          1           0       -0.958339   -3.013989    0.791510
     15          1           0       -0.036417   -1.648929    1.235119
     16          1           0       -7.406686   -1.953177    2.038562
     17          1           0       -6.948001   -0.428735    1.678364
     18          1           0       -7.416494   -1.442240    0.488646
     19          7           0       -3.936712    2.669693   -1.301522
     20          6           0       -2.587515    2.409521   -1.294826
     21          6           0       -4.553382    3.986946   -1.046087
     22          7           0        0.685098    3.505261   -0.906077
     23          1           0        1.603915    3.113750   -0.947745
     24          1           0        0.616842    4.481495   -0.698668
     25          7           0       -1.606380    3.306304   -1.055687
     26          6           0       -0.407049    2.755615   -1.118642
     27          7           0       -0.183491    1.428433   -1.394525
     28          1           0        0.767581    1.094315   -1.422322
     29          6           0       -1.177835    0.487672   -1.643764
     30          8           0       -0.868901   -0.686316   -1.882628
     31          6           0       -2.471719    1.064415   -1.579596
     32          7           0       -3.723027    0.491660   -1.761410
     33          6           0       -4.559073    1.479049   -1.587345
     34          1           0       -5.644061    1.393525   -1.656316
     35          1           0       -5.156739    3.925962   -0.251706
     36          1           0       -3.836244    4.659355   -0.867643
     37          1           0       -5.082544    4.269740   -1.845360
     38          1           0        5.674495   -0.073705   -0.781475
     39          1           0        5.712261    0.020969   -2.540530
     40          1           0        4.604261    1.045008   -1.626728
     41          1           0        3.710599   -4.311730   -1.934239
     42          6           0        3.430937   -3.259377   -1.883602
     43          8           0        1.098554   -3.685725   -1.956630
     44          6           0        2.045329   -2.901837   -1.894106
     45          1           0        0.834142   -1.253378   -1.831383
     46          7           0        1.801457   -1.544933   -1.826313
     47          8           0        2.418801    0.636584   -1.695632
     48          6           0        2.732593   -0.539430   -1.752190
     49          1           0        5.429160   -2.520418   -1.800917
     50          6           0        4.362306   -2.301229   -1.812030
     51          6           0        5.077317    0.075174   -1.668770
     52          7           0        4.046762   -0.963873   -1.746827
     53          1           0        4.856185    3.667191    3.146713
     54          1           0        3.571718    3.795320    2.148806
     55          1           0        5.085712    3.890671    1.546469
     56          1           0        2.595160   -3.081092    1.045767
     57          1           0        4.233909   -2.704063    1.332926
     58          7           0        3.288878   -2.388013    1.242073
     59          6           0        2.969052   -1.099329    1.376881
     60          6           0        3.422266    1.204184    1.764414
     61          7           0        2.144885    1.599832    1.637189
     62          1           0        0.299773    0.791176    1.260058
     63          6           0        1.357053    0.558029    1.378575
     64          7           0        1.675479   -0.733424    1.243178
     65          1           0        6.603242    1.499630    2.260666
     66          6           0        5.593285    1.137875    2.065568
     67          7           0        5.280269   -0.115569    1.845196
     68          6           0        3.906623   -0.087503    1.652710
     69          6           0        4.506874    3.452879    2.234552
     70          7           0        4.517443    1.991180    2.031273
 ---------------------------------------------------------------------

 SCF Done:  E(RwB97XD) =  -2048.75038720     A.U. after   15 cycles

 The electronic state is 1-A.
 Alpha  occ. eigenvalues --  -19.25747 -19.22079 -19.20538 -14.52477 -14.52361
 Alpha  occ. eigenvalues --  -14.48698 -14.48295 -14.48279 -14.47726 -14.46836
 Alpha  occ. eigenvalues --  -14.46500 -14.45555 -14.44273 -14.44266 -14.42027
 Alpha  occ. eigenvalues --  -14.41929 -14.40883 -14.40805 -14.40612 -14.39996
 Alpha  occ. eigenvalues --  -10.45357 -10.41132 -10.40144 -10.39964 -10.38145
 Alpha  occ. eigenvalues --  -10.38057 -10.37787 -10.37189 -10.35701 -10.35126
 Alpha  occ. eigenvalues --  -10.34764 -10.34240 -10.33952 -10.33597 -10.33263
 Alpha  occ. eigenvalues --  -10.32917 -10.32788 -10.32687 -10.31104 -10.30845
 Alpha  occ. eigenvalues --  -10.30643 -10.28083 -10.28009  -1.19325  -1.15210
 Alpha  occ. eigenvalues --   -1.13114  -1.13059  -1.10851  -1.10501  -1.09337
 Alpha  occ. eigenvalues --   -1.09190  -1.08458  -1.04844  -1.04692  -1.02390
 Alpha  occ. eigenvalues --   -1.01028  -1.00123  -0.99605  -0.98463  -0.96865
 Alpha  occ. eigenvalues --   -0.96512  -0.96477  -0.92383  -0.91018  -0.87628
 Alpha  occ. eigenvalues --   -0.85933  -0.84019  -0.83523  -0.83395  -0.82420
 Alpha  occ. eigenvalues --   -0.81939  -0.78829  -0.77044  -0.74837  -0.74521
 Alpha  occ. eigenvalues --   -0.73542  -0.73258  -0.72555  -0.70708  -0.70427
 Alpha  occ. eigenvalues --   -0.67273  -0.66848  -0.66433  -0.65953  -0.64387
 Alpha  occ. eigenvalues --   -0.64287  -0.63688  -0.62596  -0.62384  -0.61645
 Alpha  occ. eigenvalues --   -0.60585  -0.60302  -0.60235  -0.59447  -0.59367
 Alpha  occ. eigenvalues --   -0.59197  -0.58227  -0.56583  -0.56266  -0.55948
 Alpha  occ. eigenvalues --   -0.55885  -0.55382  -0.55113  -0.54379  -0.54109
 Alpha  occ. eigenvalues --   -0.53786  -0.53575  -0.53483  -0.53194  -0.52893
 Alpha  occ. eigenvalues --   -0.52773  -0.52238  -0.51435  -0.50369  -0.50110
 Alpha  occ. eigenvalues --   -0.49992  -0.49727  -0.49371  -0.49022  -0.48793
 Alpha  occ. eigenvalues --   -0.48543  -0.48418  -0.48242  -0.47567  -0.47284
 Alpha  occ. eigenvalues --   -0.46594  -0.45711  -0.45169  -0.44445  -0.43700
 Alpha  occ. eigenvalues --   -0.40796  -0.40715  -0.39339  -0.37660  -0.37590
 Alpha  occ. eigenvalues --   -0.37212  -0.37165  -0.36764  -0.35933  -0.34745
 Alpha  occ. eigenvalues --   -0.34378  -0.33823  -0.33221  -0.33137  -0.33016
 Alpha  occ. eigenvalues --   -0.32624  -0.32399  -0.32205  -0.31820  -0.30550
 Alpha  occ. eigenvalues --   -0.30156  -0.29789  -0.25597  -0.25118
 Alpha virt. eigenvalues --    0.02904   0.04036   0.07053   0.08228   0.08563
 Alpha virt. eigenvalues --    0.09379   0.09877   0.10425   0.11378   0.11997
 Alpha virt. eigenvalues --    0.12624   0.14407   0.14528   0.14859   0.15136

 Mulliken charges:
               1
     1  N   -0.313107
     2  C    0.181300
     3  C    0.054934
     4  N   -0.259116
     5  C    0.138100
     6  H    0.025467
     7  N   -0.296793
     8  C    0.135076
     9  H    0.009571
    10  N   -0.290260
    11  C    0.254412
    12  C    0.106412
    13  N   -0.054823
    14  H    0.112452
    15  H    0.082714
    16  H    0.024001
    17  H    0.030931
    18  H    0.026032
    19  N   -0.309185
    20  C    0.250525
    21  C    0.180595
    22  N   -0.112820
    23  H    0.112842
    24  H    0.115459
    25  N   -0.309590
    26  C    0.237113
    27  N   -0.147984
    28  H    0.123240
    29  C    0.189098
    30  O   -0.322745
    31  C   -0.013396
    32  N   -0.225472
    33  C    0.132129
    34  H    0.020404
    35  H    0.030001
    36  H    0.028398
    37  H    0.023680
    38  H    0.062235
    39  H    0.058815
    40  H    0.071186
    41  H    0.027496
    42  C   -0.114503
    43  O   -0.266027
    44  C    0.160839
    45  H    0.131673
    46  N   -0.115979
    47  O   -0.340590
    48  C    0.333566
    49  H    0.046269
    50  C    0.165418
    51  C    0.036564
    52  N   -0.278201
    53  H    0.034863
    54  H    0.040086
    55  H    0.027884
    56  H    0.126321
    57  H    0.115103
    58  N   -0.053275
    59  C    0.081205
    60  C    0.253430
    61  N   -0.274924
    62  H    0.040661
    63  C    0.162613
    64  N   -0.304382
    65  H    0.037467
    66  C    0.137615
    67  N   -0.266800
    68  C    0.025435
    69  C    0.179705
    70  N   -0.311362
 Sum of Mulliken charges =  -0.00000

 Dipole moment (field-independent basis, Debye):
    X=              8.2274    Y=              6.3592    Z=              1.7512  Tot=             10.5450
 Quadrupole moment (field-independent basis, Debye-Ang):
   XX=           -155.3157   YY=           -218.4739   ZZ=           -253.6866
   XY=             -0.5638   XZ=             -3.3432   YZ=             -6.0089

 Normal termination of Gaussian 16 at Wed Jan 24 04:52:42 2018.
