 Gaussian 16, Revision A.03,
 Gaussian 16:  EM64L-G16RevA.03 25-Dec-2016

 ---------------------------------------
 #p wb97xd/cc-pvdz sp scf=(maxcycles=20)
 ---------------------------------------

 ------------------
 Base pair stacking
 ------------------
 Symbolic Z-matrix:
 Charge =  0 Multiplicity = 1

                         Standard orientation:
 ---------------------------------------------------------------------
 Center     Atomic      Atomic             Coordinates (Angstroms)
 Number     Number       Type             X           Y           Z
 ---------------------------------------------------------------------
      1          7           0       -6.442047   -1.603588    0.569547
      2          6           0       -7.831636   -1.108955    0.618276
      3          6           0       -4.253316   -1.755163    0.723824
      4          7           0       -4.693169   -2.975653    0.232242
      5          6           0       -5.994191   -2.835490    0.158974
      6          1           0       -6.682058   -3.605882   -0.190704
      7          7           0       -2.879780   -0.002358    1.501019
      8          6           0       -4.002536    0.707187    1.654482
      9          1           0       -3.865597    1.716827    2.039365
     10          7           0       -5.263112    0.358433    1.405083
     11          6           0       -5.319916   -0.899227    0.936581
     12          6           0       -2.970435   -1.264413    1.027649
     13          7           0       -1.850797   -1.974279    0.873769
     14          1           0       -1.870571   -2.912468    0.526445
     15          1           0       -0.954556   -1.592726    1.100278
     16          1           0       -8.373026   -1.691121    1.225043
     17          1           0       -7.840370   -0.170715    0.962874
     18          1           0       -8.227060   -1.128671   -0.300005
     19          7           0       -2.918485    2.774156   -1.658590
     20          6           0       -1.586479    2.466256   -1.520640
     21          6           0       -3.501916    4.123321   -1.517028
     22          7           0        1.681003    3.460778   -0.891165
     23          1           0        2.583568    3.034971   -0.833809
     24          1           0        1.634016    4.447543   -0.733697
     25          7           0       -0.594846    3.337495   -1.234881
     26          6           0        0.582436    2.741679   -1.166797
     27          7           0        0.775941    1.395772   -1.363206
     28          1           0        1.711715    1.026730   -1.291689
     29          6           0       -0.229716    0.480632   -1.658246
     30          8           0        0.051681   -0.713677   -1.816951
     31          6           0       -1.500178    1.105906   -1.734670
     32          7           0       -2.752787    0.570552   -2.001618
     33          6           0       -3.560672    1.594480   -1.946032
     34          1           0       -4.638076    1.544853   -2.107298
     35          1           0       -4.174130    4.121673   -0.777473
     36          1           0       -2.776743    4.777202   -1.305265
     37          1           0       -3.947714    4.386879   -2.371782
     38          1           0        6.493522   -0.285349   -0.166792
     39          1           0        6.688138   -0.275313   -1.917991
     40          1           0        5.546557    0.829924   -1.152077
     41          1           0        4.469687   -4.499767   -1.302299
     42          6           0        4.228961   -3.436812   -1.322959
     43          8           0        1.896637   -3.782021   -1.584120
     44          6           0        2.864946   -3.030596   -1.472205
     45          1           0        1.719757   -1.338538   -1.589771
     46          7           0        2.670525   -1.664122   -1.485981
     47          8           0        3.360837    0.497535   -1.396874
     48          6           0        3.631111   -0.690356   -1.373649
     49          1           0        6.240322   -2.767091   -1.095597
     50          6           0        5.188113   -2.510467   -1.211053
     51          6           0        5.982339   -0.157194   -1.109309
     52          7           0        4.921791   -1.161036   -1.232921
     53          1           0        3.892345    3.499755    3.635464
     54          1           0        2.708304    3.701547    2.531190
     55          1           0        4.272975    3.769174    2.071511
     56          1           0        1.641627   -3.100009    1.097174
     57          1           0        3.257429   -2.784629    1.544204
     58          7           0        2.333966   -2.436085    1.380058
     59          6           0        2.039863   -1.143180    1.531942
     60          6           0        2.521045    1.130680    2.041618
     61          7           0        1.272313    1.570430    1.814207
     62          1           0       -0.552956    0.833380    1.243450
     63          6           0        0.482099    0.563198    1.448238
     64          7           0        0.774765   -0.732418    1.295540
     65          1           0        5.650667    1.308972    2.832733
     66          6           0        4.652838    0.985954    2.534514
     67          7           0        4.325772   -0.248954    2.241747
     68          6           0        2.976737   -0.171178    1.927445
     69          6           0        3.621662    3.327131    2.688402
     70          7           0        3.609234    1.873420    2.434281
 ---------------------------------------------------------------------

 SCF Done:  E(RwB97XD) =  -2048.74685058     A.U. after   15 cycles

 The electronic state is 1-A.
 Alpha  occ. eigenvalues --  -19.26033 -19.22441 -19.20732 -14.52629 -14.51837
 Alpha  occ. eigenvalues --  -14.48792 -14.48636 -14.47988 -14.47063 -14.47026
 Alpha  occ. eigenvalues --  -14.46912 -14.44910 -14.43402 -14.43371 -14.42151
 Alpha  occ. eigenvalues --  -14.41976 -14.41260 -14.40832 -14.40770 -14.40004
 Alpha  occ. eigenvalues --  -10.45666 -10.41345 -10.40520 -10.39014 -10.38319
 Alpha  occ. eigenvalues --  -10.38126 -10.37430 -10.36422 -10.35244 -10.35221
 Alpha  occ. eigenvalues --  -10.34922 -10.34416 -10.33932 -10.33546 -10.33281
 Alpha  occ. eigenvalues --  -10.33200 -10.32951 -10.31892 -10.31384 -10.30908
 Alpha  occ. eigenvalues --  -10.30883 -10.28348 -10.28171  -1.19610  -1.14522
 Alpha  occ. eigenvalues --   -1.13442  -1.13314  -1.11199  -1.10631  -1.09516
 Alpha  occ. eigenvalues --   -1.08683  -1.08376  -1.04807  -1.03948  -1.02709
 Alpha  occ. eigenvalues --   -1.00328  -1.00239  -0.99926  -0.98633  -0.96819
 Alpha  occ. eigenvalues --   -0.96608  -0.95933  -0.92461  -0.91318  -0.86936
 Alpha  occ. eigenvalues --   -0.85349  -0.84157  -0.83805  -0.83744  -0.82524
 Alpha  occ. eigenvalues --   -0.82188  -0.79113  -0.76268  -0.74695  -0.74008
 Alpha  occ. eigenvalues --   -0.73798  -0.73569  -0.72736  -0.70898  -0.69658
 Alpha  occ. eigenvalues --   -0.67506  -0.66754  -0.66139  -0.66000  -0.64635
 Alpha  occ. eigenvalues --   -0.63880  -0.63490  -0.62791  -0.62531  -0.61863
 Alpha  occ. eigenvalues --   -0.60140  -0.60007  -0.59772  -0.59696  -0.59084
 Alpha  occ. eigenvalues --   -0.58811  -0.58536  -0.56676  -0.56393  -0.56289
 Alpha  occ. eigenvalues --   -0.56135  -0.55254  -0.54785  -0.54604  -0.54490
 Alpha  occ. eigenvalues --   -0.53769  -0.53647  -0.53052  -0.53006  -0.52809
 Alpha  occ. eigenvalues --   -0.52552  -0.52108  -0.51649  -0.50613  -0.50285
 Alpha  occ. eigenvalues --   -0.50069  -0.49645  -0.49291  -0.49057  -0.48967
 Alpha  occ. eigenvalues --   -0.48597  -0.48385  -0.48144  -0.47749  -0.47530
 Alpha  occ. eigenvalues --   -0.46814  -0.45629  -0.44871  -0.44377  -0.43734
 Alpha  occ. eigenvalues --   -0.40987  -0.40037  -0.39598  -0.37383  -0.37331
 Alpha  occ. eigenvalues --   -0.37105  -0.37011  -0.36763  -0.35968  -0.34282
 Alpha  occ. eigenvalues --   -0.34044  -0.33630  -0.33493  -0.33274  -0.33209
 Alpha  occ. eigenvalues --   -0.32749  -0.32465  -0.32262  -0.31885  -0.30759
 Alpha  occ. eigenvalues --   -0.30242  -0.29185  -0.25649  -0.25447
 Alpha virt. eigenvalues --    0.02625   0.04849   0.07351   0.08146   0.08810
 Alpha virt. eigenvalues --    0.09079   0.09589   0.11105   0.11320   0.11679
 Alpha virt. eigenvalues --    0.12685   0.14208   0.14676   0.14776   0.15014

 Mulliken charges:
               1
     1  N   -0.311794
     2  C    0.180799
     3  C    0.043643
     4  N   -0.258590
     5  C    0.133320
     6  H    0.025797
     7  N   -0.292641
     8  C    0.133108
     9  H    0.009241
    10  N   -0.292257
    11  C    0.240723
    12  C    0.119895
    13  N   -0.051466
    14  H    0.110951
    15  H    0.090331
    16  H    0.025343
    17  H    0.033259
    18  H    0.025115
    19  N   -0.312091
    20  C    0.249461
    21  C    0.180724
    22  N   -0.116445
    23  H    0.113497
    24  H    0.115840
    25  N   -0.305790
    26  C    0.238478
    27  N   -0.136209
    28  H    0.114492
    29  C    0.166132
    30  O   -0.320375
    31  C    0.003998
    32  N   -0.225671
    33  C    0.131077
    34  H    0.026981
    35  H    0.030725
    36  H    0.028120
    37  H    0.024284
    38  H    0.063129
    39  H    0.058817
    40  H    0.071998
    41  H    0.030456
    42  C   -0.114683
    43  O   -0.269938
    44  C    0.151642
    45  H    0.135863
    46  N   -0.118493
    47  O   -0.347927
    48  C    0.351088
    49  H    0.049651
    50  C    0.175589
    51  C    0.041128
    52  N   -0.286347
    53  H    0.033843
    54  H    0.041628
    55  H    0.022426
    56  H    0.128749
    57  H    0.113194
    58  N   -0.057992
    59  C    0.087301
    60  C    0.238196
    61  N   -0.266284
    62  H    0.040914
    63  C    0.167209
    64  N   -0.300293
    65  H    0.032058
    66  C    0.134568
    67  N   -0.266594
    68  C    0.022659
    69  C    0.177510
    70  N   -0.313067
 Sum of Mulliken charges =  -0.00000

 Dipole moment (field-independent basis, Debye):
    X=              8.2435    Y=              6.0169    Z=              1.8350  Tot=             10.3694
 Quadrupole moment (field-independent basis, Debye-Ang):
   XX=           -149.7566   YY=           -219.3453   ZZ=           -252.0563
   XY=              1.7868   XZ=              7.4682   YZ=             -5.5773

 Normal termination of Gaussian 16 at Tue Jan 23 16:42:19 2018.
