 Gaussian 16, Revision A.03,
 Gaussian 16:  EM64L-G16RevA.03 25-Dec-2016

 ---------------------------------------
 #p wb97xd/cc-pvdz sp scf=(maxcycles=20)
 ---------------------------------------

 ------------------
 Base pair stacking
 ------------------
 Symbolic Z-matrix:
 Charge =  0 Multiplicity = 1

                         Standard orientation:
 ---------------------------------------------------------------------
 Center     Atomic      Atomic             Coordinates (Angstroms)
 Number     Number       Type             X           Y           Z
 ---------------------------------------------------------------------
      1          7           0        4.901149   -2.043703   -1.577293
      2          6           0        6.287306   -1.646786   -1.892004
      3          6           0        2.714700   -2.051801   -1.339178
      4          7           0        3.160346   -3.280348   -0.873548
      5          6           0        4.459765   -3.226294   -1.035640
      6          1           0        5.151001   -4.028194   -0.774697
      7          7           0        1.333357   -0.239662   -1.948264
      8          6           0        2.451779    0.385777   -2.329748
      9          1           0        2.309900    1.387464   -2.733173
     10          7           0        3.713230   -0.038371   -2.287898
     11          6           0        3.776282   -1.278792   -1.776235
     12          6           0        1.430255   -1.486594   -1.437516
     13          7           0        0.314960   -2.112552   -1.056153
     14          1           0        0.339412   -3.036426   -0.672638
     15          1           0       -0.582573   -1.679615   -1.140742
     16          1           0        6.676234   -2.286440   -2.555150
     17          1           0        6.291341   -0.724699   -2.277832
     18          1           0        6.837547   -1.659347   -1.057098
     19          7           0        4.589677    2.614607    0.954950
     20          6           0        3.238233    2.393046    1.066962
     21          6           0        5.219068    3.914855    0.648468
     22          7           0       -0.023010    3.583338    0.970836
     23          1           0       -0.945463    3.218012    1.092776
     24          1           0        0.054741    4.558131    0.760004
     25          7           0        2.266036    3.318483    0.917088
     26          6           0        1.061587    2.801943    1.084703
     27          7           0        0.825137    1.480475    1.376812
     28          1           0       -0.128997    1.173487    1.487887
     29          6           0        1.810100    0.510663    1.535507
     30          8           0        1.489778   -0.655074    1.798558
     31          6           0        3.109336    1.050559    1.358364
     32          7           0        4.354799    0.441556    1.427886
     33          6           0        5.200297    1.405470    1.182478
     34          1           0        6.284230    1.288731    1.155181
     35          1           0        5.747970    3.840178   -0.196214
     36          1           0        4.508640    4.608208    0.535313
     37          1           0        5.824608    4.178937    1.398397
     38          1           0       -5.104901    0.148664    1.280825
     39          1           0       -4.984562    0.236675    3.036503
     40          1           0       -3.932495    1.232699    2.030294
     41          1           0       -3.169767   -4.148636    2.247767
     42          6           0       -2.865485   -3.104471    2.174571
     43          8           0       -0.548998   -3.597463    2.040515
     44          6           0       -1.474643   -2.786631    2.063313
     45          1           0       -0.226765   -1.173124    1.896895
     46          7           0       -1.198743   -1.436955    1.976742
     47          8           0       -1.762153    0.761826    1.905136
     48          6           0       -2.103450   -0.405001    1.987019
     49          1           0       -4.841108   -2.308490    2.270078
     50          6           0       -3.771564   -2.119868    2.187321
     51          6           0       -4.427724    0.276570    2.112166
     52          7           0       -3.424641   -0.791767    2.096968
     53          1           0       -5.486175    3.633174   -3.033306
     54          1           0       -4.114920    3.794762   -2.164022
     55          1           0       -5.566156    3.985504   -1.441800
     56          1           0       -3.223145   -3.005858   -0.611035
     57          1           0       -4.870596   -2.598154   -0.783526
     58          7           0       -3.913333   -2.307336   -0.800357
     59          6           0       -3.573377   -1.043905   -1.063692
     60          6           0       -3.999251    1.236985   -1.590872
     61          7           0       -2.705752    1.598974   -1.606746
     62          1           0       -0.856025    0.761212   -1.328780
     63          6           0       -1.925376    0.554596   -1.336209
     64          7           0       -2.263958   -0.711597   -1.072191
     65          1           0       -7.203037    1.598142   -1.830559
     66          6           0       -6.189464    1.219317   -1.696044
     67          7           0       -5.890765   -0.023285   -1.405516
     68          6           0       -4.505166   -0.025787   -1.335950
     69          6           0       -5.062584    3.477705   -2.140897
     70          7           0       -5.093019    2.036910   -1.822795
 ---------------------------------------------------------------------

 SCF Done:  E(RwB97XD) =  -2048.74782285     A.U. after   15 cycles

 The electronic state is 1-A.
 Alpha  occ. eigenvalues --  -19.25668 -19.21933 -19.20599 -14.52512 -14.52318
 Alpha  occ. eigenvalues --  -14.48936 -14.48517 -14.47957 -14.47579 -14.46908
 Alpha  occ. eigenvalues --  -14.46706 -14.45545 -14.44569 -14.44449 -14.42107
 Alpha  occ. eigenvalues --  -14.42089 -14.41102 -14.40554 -14.40481 -14.40008
 Alpha  occ. eigenvalues --  -10.45299 -10.41303 -10.40205 -10.40041 -10.38257
 Alpha  occ. eigenvalues --  -10.38098 -10.37906 -10.37328 -10.35954 -10.35099
 Alpha  occ. eigenvalues --  -10.34812 -10.34470 -10.33885 -10.33535 -10.33312
 Alpha  occ. eigenvalues --  -10.32830 -10.32727 -10.32682 -10.31060 -10.30999
 Alpha  occ. eigenvalues --  -10.30289 -10.28225 -10.27922  -1.19234  -1.15283
 Alpha  occ. eigenvalues --   -1.13238  -1.12933  -1.10692  -1.10571  -1.09601
 Alpha  occ. eigenvalues --   -1.09138  -1.08600  -1.05054  -1.04648  -1.02272
 Alpha  occ. eigenvalues --   -1.01085  -1.00067  -0.99783  -0.98616  -0.97079
 Alpha  occ. eigenvalues --   -0.96728  -0.96242  -0.92343  -0.91027  -0.87734
 Alpha  occ. eigenvalues --   -0.85960  -0.84241  -0.83388  -0.83284  -0.82623
 Alpha  occ. eigenvalues --   -0.81691  -0.78801  -0.77202  -0.74989  -0.74721
 Alpha  occ. eigenvalues --   -0.73690  -0.73188  -0.72416  -0.70635  -0.70494
 Alpha  occ. eigenvalues --   -0.67452  -0.67010  -0.66408  -0.65813  -0.64467
 Alpha  occ. eigenvalues --   -0.64397  -0.63778  -0.62698  -0.62249  -0.61841
 Alpha  occ. eigenvalues --   -0.60729  -0.60383  -0.60191  -0.59475  -0.59358
 Alpha  occ. eigenvalues --   -0.59217  -0.58409  -0.56746  -0.56141  -0.55900
 Alpha  occ. eigenvalues --   -0.55609  -0.55382  -0.55076  -0.54456  -0.54180
 Alpha  occ. eigenvalues --   -0.53769  -0.53657  -0.53556  -0.53097  -0.52991
 Alpha  occ. eigenvalues --   -0.52904  -0.52236  -0.51191  -0.50282  -0.50164
 Alpha  occ. eigenvalues --   -0.50017  -0.49634  -0.49414  -0.49312  -0.48880
 Alpha  occ. eigenvalues --   -0.48479  -0.48389  -0.48299  -0.47823  -0.47304
 Alpha  occ. eigenvalues --   -0.46422  -0.45758  -0.45471  -0.44337  -0.43491
 Alpha  occ. eigenvalues --   -0.40827  -0.40702  -0.39288  -0.37758  -0.37722
 Alpha  occ. eigenvalues --   -0.37391  -0.37364  -0.36562  -0.35767  -0.34938
 Alpha  occ. eigenvalues --   -0.34507  -0.34034  -0.33214  -0.32985  -0.32798
 Alpha  occ. eigenvalues --   -0.32715  -0.32593  -0.32232  -0.31947  -0.30347
 Alpha  occ. eigenvalues --   -0.30042  -0.29934  -0.25602  -0.25332
 Alpha virt. eigenvalues --    0.02669   0.04231   0.06569   0.08471   0.08948
 Alpha virt. eigenvalues --    0.09146   0.09701   0.10392   0.11436   0.11556
 Alpha virt. eigenvalues --    0.13284   0.14392   0.14659   0.14815   0.15019

 Mulliken charges:
               1
     1  N   -0.311644
     2  C    0.182297
     3  C    0.054372
     4  N   -0.257004
     5  C    0.142953
     6  H    0.025682
     7  N   -0.298574
     8  C    0.132474
     9  H    0.009589
    10  N   -0.286797
    11  C    0.256584
    12  C    0.096860
    13  N   -0.063418
    14  H    0.115043
    15  H    0.083437
    16  H    0.022152
    17  H    0.030243
    18  H    0.027455
    19  N   -0.310401
    20  C    0.255219
    21  C    0.180922
    22  N   -0.122347
    23  H    0.117549
    24  H    0.117620
    25  N   -0.312205
    26  C    0.248662
    27  N   -0.147098
    28  H    0.118452
    29  C    0.194944
    30  O   -0.321513
    31  C   -0.015279
    32  N   -0.228415
    33  C    0.127316
    34  H    0.021217
    35  H    0.028725
    36  H    0.029541
    37  H    0.024493
    38  H    0.064350
    39  H    0.059244
    40  H    0.074219
    41  H    0.026342
    42  C   -0.127326
    43  O   -0.265339
    44  C    0.170908
    45  H    0.131717
    46  N   -0.122734
    47  O   -0.346470
    48  C    0.346276
    49  H    0.043236
    50  C    0.170923
    51  C    0.035540
    52  N   -0.277049
    53  H    0.034359
    54  H    0.041229
    55  H    0.029015
    56  H    0.120863
    57  H    0.114702
    58  N   -0.057366
    59  C    0.094610
    60  C    0.253811
    61  N   -0.274495
    62  H    0.034298
    63  C    0.176218
    64  N   -0.315364
    65  H    0.038947
    66  C    0.137264
    67  N   -0.264762
    68  C    0.014205
    69  C    0.180627
    70  N   -0.311106
 Sum of Mulliken charges =  -0.00000

 Dipole moment (field-independent basis, Debye):
    X=             -8.1878    Y=              6.8321    Z=             -0.8543  Tot=             10.6981
 Quadrupole moment (field-independent basis, Debye-Ang):
   XX=           -159.7817   YY=           -217.9114   ZZ=           -251.7426
   XY=              2.2434   XZ=            -10.9430   YZ=              4.4016

 Normal termination of Gaussian 16 at Tue Jan 23 17:40:29 2018.
