 Gaussian 16, Revision A.03,
 Gaussian 16:  EM64L-G16RevA.03 25-Dec-2016

 ---------------------------------------
 #p wb97xd/cc-pvdz sp scf=(maxcycles=20)
 ---------------------------------------

 ------------------
 Base pair stacking
 ------------------
 Symbolic Z-matrix:
 Charge =  0 Multiplicity = 1

                         Standard orientation:
 ---------------------------------------------------------------------
 Center     Atomic      Atomic             Coordinates (Angstroms)
 Number     Number       Type             X           Y           Z
 ---------------------------------------------------------------------
      1          7           0       -5.867132   -1.784276    0.970736
      2          6           0       -7.260989   -1.323684    1.122505
      3          6           0       -3.670278   -1.889389    0.981284
      4          7           0       -4.114583   -3.104966    0.481599
      5          6           0       -5.420320   -2.992992    0.495243
      6          1           0       -6.112579   -3.768677    0.166560
      7          7           0       -2.287482   -0.128477    1.722906
      8          6           0       -3.412977    0.550029    1.968795
      9          1           0       -3.273237    1.550975    2.374810
     10          7           0       -4.679227    0.179487    1.789278
     11          6           0       -4.739084   -1.065007    1.287213
     12          6           0       -2.381331   -1.378008    1.217997
     13          7           0       -1.258964   -2.056903    0.971880
     14          1           0       -1.280929   -2.984810    0.598073
     15          1           0       -0.358398   -1.661378    1.152648
     16          1           0       -7.749862   -1.935654    1.744341
     17          1           0       -7.267633   -0.396306    1.495410
     18          1           0       -7.713908   -1.325886    0.230961
     19          7           0       -3.579644    2.768657   -1.429211
     20          6           0       -2.235277    2.487911   -1.385409
     21          6           0       -4.181456    4.099230   -1.209884
     22          7           0        1.043858    3.539351   -0.934296
     23          1           0        1.957122    3.133128   -0.947282
     24          1           0        0.986017    4.519765   -0.744163
     25          7           0       -1.246182    3.373268   -1.136669
     26          6           0       -0.054521    2.803242   -1.161529
     27          7           0        0.154674    1.468459   -1.410743
     28          1           0        1.100751    1.119337   -1.409976
     29          6           0       -0.848072    0.539175   -1.669210
     30          8           0       -0.552009   -0.643158   -1.881762
     31          6           0       -2.133866    1.136727   -1.645845
     32          7           0       -3.389297    0.580404   -1.849050
     33          6           0       -4.213619    1.583243   -1.711182
     34          1           0       -5.297832    1.513300   -1.805268
     35          1           0       -4.804733    4.060479   -0.429611
     36          1           0       -3.458327    4.763338   -1.024691
     37          1           0       -4.686607    4.377090   -2.026240
     38          1           0        5.971699   -0.113454   -0.630955
     39          1           0        6.053478   -0.048010   -2.389846
     40          1           0        4.939995    1.007691   -1.519779
     41          1           0        3.969637   -4.338959   -1.763824
     42          6           0        3.705468   -3.281741   -1.736773
     43          8           0        1.369097   -3.673288   -1.859981
     44          6           0        2.326337   -2.903143   -1.786817
     45          1           0        1.140141   -1.235441   -1.779916
     46          7           0        2.102332   -1.541731   -1.746574
     47          8           0        2.750674    0.631866   -1.635555
     48          6           0        3.047152   -0.549590   -1.665727
     49          1           0        5.712516   -2.572360   -1.617055
     50          6           0        4.649828   -2.337003   -1.657716
     51          6           0        5.398576    0.030136   -1.534828
     52          7           0        4.353941   -0.994054   -1.621507
     53          1           0        4.531214    3.466484    3.529558
     54          1           0        3.274837    3.672731    2.509212
     55          1           0        4.805057    3.790005    1.953563
     56          1           0        2.263817   -3.107232    0.939054
     57          1           0        3.897835   -2.767518    1.292158
     58          7           0        2.958521   -2.435900    1.197579
     59          6           0        2.647251   -1.155132    1.407138
     60          6           0        3.111481    1.113521    1.954360
     61          7           0        1.841652    1.530569    1.820070
     62          1           0       -0.000290    0.768216    1.343969
     63          6           0        1.051275    0.516309    1.474406
     64          7           0        1.361136   -0.767171    1.264043
     65          1           0        6.280833    1.341397    2.550572
     66          6           0        5.273059    1.004086    2.306506
     67          7           0        4.954327   -0.229057    1.997545
     68          6           0        3.586579   -0.173537    1.771904
     69          6           0        4.204161    3.315209    2.596737
     70          7           0        4.206500    1.869604    2.299713
 ---------------------------------------------------------------------

 SCF Done:  E(RwB97XD) =  -2048.74881022     A.U. after   15 cycles

 The electronic state is 1-A.
 Alpha  occ. eigenvalues --  -19.25940 -19.22382 -19.20638 -14.52524 -14.52236
 Alpha  occ. eigenvalues --  -14.48752 -14.48332 -14.47903 -14.47893 -14.46959
 Alpha  occ. eigenvalues --  -14.46675 -14.45345 -14.43970 -14.43967 -14.42034
 Alpha  occ. eigenvalues --  -14.41865 -14.40926 -14.40832 -14.40563 -14.39897
 Alpha  occ. eigenvalues --  -10.45547 -10.41235 -10.40400 -10.39629 -10.38236
 Alpha  occ. eigenvalues --  -10.37933 -10.37832 -10.36910 -10.35421 -10.35037
 Alpha  occ. eigenvalues --  -10.34944 -10.34313 -10.33781 -10.33626 -10.33294
 Alpha  occ. eigenvalues --  -10.32913 -10.32749 -10.32414 -10.31290 -10.30880
 Alpha  occ. eigenvalues --  -10.30697 -10.28080 -10.28067  -1.19505  -1.14960
 Alpha  occ. eigenvalues --   -1.13346  -1.13214  -1.10889  -1.10573  -1.09404
 Alpha  occ. eigenvalues --   -1.08984  -1.08569  -1.04639  -1.04531  -1.02592
 Alpha  occ. eigenvalues --   -1.00781  -1.00046  -0.99751  -0.98554  -0.96647
 Alpha  occ. eigenvalues --   -0.96569  -0.96408  -0.92299  -0.91191  -0.87377
 Alpha  occ. eigenvalues --   -0.85714  -0.84088  -0.83555  -0.83541  -0.82479
 Alpha  occ. eigenvalues --   -0.81949  -0.78994  -0.76773  -0.74638  -0.74510
 Alpha  occ. eigenvalues --   -0.73668  -0.73447  -0.72518  -0.70674  -0.70163
 Alpha  occ. eigenvalues --   -0.67387  -0.66616  -0.66550  -0.65916  -0.64529
 Alpha  occ. eigenvalues --   -0.64027  -0.63779  -0.62696  -0.62336  -0.61749
 Alpha  occ. eigenvalues --   -0.60372  -0.60145  -0.60084  -0.59565  -0.59218
 Alpha  occ. eigenvalues --   -0.59160  -0.58375  -0.56615  -0.56227  -0.56039
 Alpha  occ. eigenvalues --   -0.56017  -0.55207  -0.54974  -0.54491  -0.54300
 Alpha  occ. eigenvalues --   -0.53696  -0.53664  -0.53332  -0.53159  -0.52986
 Alpha  occ. eigenvalues --   -0.52545  -0.52394  -0.51441  -0.50374  -0.50211
 Alpha  occ. eigenvalues --   -0.49906  -0.49568  -0.49525  -0.48954  -0.48699
 Alpha  occ. eigenvalues --   -0.48667  -0.48437  -0.48338  -0.47658  -0.47417
 Alpha  occ. eigenvalues --   -0.46586  -0.45699  -0.44801  -0.44541  -0.43948
 Alpha  occ. eigenvalues --   -0.40730  -0.40490  -0.39497  -0.37507  -0.37348
 Alpha  occ. eigenvalues --   -0.37288  -0.37176  -0.36769  -0.36097  -0.34594
 Alpha  occ. eigenvalues --   -0.34130  -0.33889  -0.33474  -0.33108  -0.33020
 Alpha  occ. eigenvalues --   -0.32674  -0.32442  -0.32262  -0.31875  -0.30534
 Alpha  occ. eigenvalues --   -0.30094  -0.29621  -0.25645  -0.25079
 Alpha virt. eigenvalues --    0.02799   0.04209   0.07358   0.08280   0.08398
 Alpha virt. eigenvalues --    0.09289   0.09782   0.10726   0.11428   0.11993
 Alpha virt. eigenvalues --    0.12681   0.14519   0.14606   0.14753   0.15147

 Mulliken charges:
               1
     1  N   -0.313073
     2  C    0.180942
     3  C    0.053413
     4  N   -0.258723
     5  C    0.135499
     6  H    0.025112
     7  N   -0.295175
     8  C    0.135871
     9  H    0.008761
    10  N   -0.292328
    11  C    0.248565
    12  C    0.111560
    13  N   -0.052769
    14  H    0.112575
    15  H    0.085037
    16  H    0.024512
    17  H    0.031829
    18  H    0.025079
    19  N   -0.310869
    20  C    0.250272
    21  C    0.180515
    22  N   -0.114648
    23  H    0.113043
    24  H    0.115744
    25  N   -0.309604
    26  C    0.240011
    27  N   -0.147465
    28  H    0.122578
    29  C    0.184558
    30  O   -0.322298
    31  C   -0.007771
    32  N   -0.226165
    33  C    0.133231
    34  H    0.022588
    35  H    0.030406
    36  H    0.028363
    37  H    0.023961
    38  H    0.062423
    39  H    0.058519
    40  H    0.071040
    41  H    0.028489
    42  C   -0.111891
    43  O   -0.266705
    44  C    0.150969
    45  H    0.133393
    46  N   -0.113110
    47  O   -0.341775
    48  C    0.335464
    49  H    0.048360
    50  C    0.165888
    51  C    0.038506
    52  N   -0.279369
    53  H    0.034426
    54  H    0.041286
    55  H    0.026161
    56  H    0.129317
    57  H    0.115409
    58  N   -0.054445
    59  C    0.075212
    60  C    0.250632
    61  N   -0.272766
    62  H    0.040150
    63  C    0.161497
    64  N   -0.302507
    65  H    0.035727
    66  C    0.137811
    67  N   -0.268051
    68  C    0.029803
    69  C    0.178953
    70  N   -0.311950
 Sum of Mulliken charges =  -0.00000

 Dipole moment (field-independent basis, Debye):
    X=              8.2947    Y=              6.2787    Z=              1.6639  Tot=             10.5353
 Quadrupole moment (field-independent basis, Debye-Ang):
   XX=           -153.6960   YY=           -218.5058   ZZ=           -252.8126
   XY=              0.0629   XZ=              0.8211   YZ=             -4.7101

 Normal termination of Gaussian 16 at Tue Jan 23 15:20:37 2018.
