 Gaussian 16, Revision A.03,
 Gaussian 16:  EM64L-G16RevA.03 25-Dec-2016

 ---------------------------------------
 #p wb97xd/cc-pvdz sp scf=(maxcycles=20)
 ---------------------------------------

 ------------------
 Base pair stacking
 ------------------
 Symbolic Z-matrix:
 Charge =  0 Multiplicity = 1

                         Standard orientation:
 ---------------------------------------------------------------------
 Center     Atomic      Atomic             Coordinates (Angstroms)
 Number     Number       Type             X           Y           Z
 ---------------------------------------------------------------------
      1          7           0       -7.171193   -1.434440    0.139371
      2          6           0       -8.537310   -0.905833   -0.040372
      3          6           0       -5.010093   -1.604321    0.510980
      4          7           0       -5.463045   -2.891366    0.259843
      5          6           0       -6.746901   -2.737511    0.046006
      6          1           0       -7.438278   -3.548081   -0.186175
      7          7           0       -3.626343    0.240745    1.004861
      8          6           0       -4.725509    0.995147    0.903353
      9          1           0       -4.575111    2.060857    1.070363
     10          7           0       -5.976681    0.632448    0.627811
     11          6           0       -6.051575   -0.695560    0.440206
     12          6           0       -3.734762   -1.091762    0.810558
     13          7           0       -2.638686   -1.846487    0.911458
     14          1           0       -2.672227   -2.837259    0.775570
     15          1           0       -1.747149   -1.447515    1.126205
     16          1           0       -9.149675   -1.326319    0.629246
     17          1           0       -8.531955    0.085123    0.090409
     18          1           0       -8.859880   -1.116822   -0.963097
     19          7           0       -2.115675    2.561678   -1.733986
     20          6           0       -0.800183    2.259643   -1.476476
     21          6           0       -2.720364    3.904513   -1.625094
     22          7           0        2.385758    3.263094   -0.525375
     23          1           0        3.282246    2.841924   -0.390541
     24          1           0        2.316466    4.246624   -0.356304
     25          7           0        0.153350    3.131809   -1.083883
     26          6           0        1.323634    2.542192   -0.915383
     27          7           0        1.545259    1.201172   -1.115516
     28          1           0        2.473015    0.836721   -0.962492
     29          6           0        0.578984    0.285178   -1.519424
     30          8           0        0.883389   -0.904381   -1.671178
     31          6           0       -0.683502    0.903836   -1.704491
     32          7           0       -1.901245    0.365531   -2.097238
     33          6           0       -2.718750    1.383311   -2.100583
     34          1           0       -3.775800    1.329875   -2.363390
     35          1           0       -3.459110    3.885660   -0.952252
     36          1           0       -2.023450    4.559021   -1.334936
     37          1           0       -3.085858    4.180335   -2.513433
     38          1           0        7.137982   -0.465398    0.585186
     39          1           0        7.496306   -0.423274   -1.139488
     40          1           0        6.279167    0.661203   -0.465801
     41          1           0        5.262875   -4.671568   -0.807195
     42          6           0        5.016866   -3.609931   -0.832386
     43          8           0        2.722195   -3.964893   -1.317794
     44          6           0        3.669792   -3.209575   -1.102477
     45          1           0        2.527539   -1.522828   -1.298592
     46          7           0        3.466848   -1.844301   -1.111295
     47          8           0        4.128817    0.319670   -0.920910
     48          6           0        4.404978   -0.866753   -0.892515
     49          1           0        6.992640   -2.931901   -0.405326
     50          6           0        5.953969   -2.679783   -0.614961
     51          6           0        6.716697   -0.323798   -0.398961
     52          7           0        5.680348   -1.331856   -0.638896
     53          1           0        3.104182    3.952052    2.904466
     54          1           0        2.020515    3.936357    1.684828
     55          1           0        3.617913    3.861232    1.358088
     56          1           0        0.772708   -2.984501    1.674043
     57          1           0        2.360674   -2.619987    2.179606
     58          7           0        1.469116   -2.292559    1.864761
     59          6           0        1.220945   -0.990803    1.706595
     60          6           0        1.759798    1.326408    1.750377
     61          7           0        0.553259    1.737190    1.326184
     62          1           0       -1.252089    0.939624    0.773721
     63          6           0       -0.249166    0.694694    1.120710
     64          7           0       -0.002462   -0.609840    1.278546
     65          1           0        4.822414    1.594153    2.750793
     66          6           0        3.837892    1.239115    2.444858
     67          7           0        3.481021   -0.021167    2.399884
     68          6           0        2.165546    0.020076    1.961078
     69          6           0        2.901404    3.582425    1.997680
     70          7           0        2.845287    2.109218    2.064885
 ---------------------------------------------------------------------

 SCF Done:  E(RwB97XD) =  -2048.71481992     A.U. after   15 cycles

 The electronic state is 1-A.
 Alpha  occ. eigenvalues --  -19.25951 -19.22085 -19.20691 -14.52507 -14.51513
 Alpha  occ. eigenvalues --  -14.49288 -14.48838 -14.47969 -14.47190 -14.46747
 Alpha  occ. eigenvalues --  -14.46740 -14.44380 -14.42804 -14.42639 -14.42462
 Alpha  occ. eigenvalues --  -14.41981 -14.41959 -14.41467 -14.40838 -14.40680
 Alpha  occ. eigenvalues --  -10.45585 -10.41417 -10.40204 -10.38543 -10.38329
 Alpha  occ. eigenvalues --  -10.37858 -10.36985 -10.35934 -10.35838 -10.35455
 Alpha  occ. eigenvalues --  -10.34631 -10.34403 -10.34236 -10.33928 -10.33658
 Alpha  occ. eigenvalues --  -10.33386 -10.33317 -10.31397 -10.31350 -10.31154
 Alpha  occ. eigenvalues --  -10.30873 -10.29114 -10.28291  -1.19506  -1.14293
 Alpha  occ. eigenvalues --   -1.13312  -1.13103  -1.11893  -1.10687  -1.09398
 Alpha  occ. eigenvalues --   -1.08937  -1.07860  -1.05517  -1.03427  -1.02589
 Alpha  occ. eigenvalues --   -1.00945  -1.00823  -0.99576  -0.98592  -0.97473
 Alpha  occ. eigenvalues --   -0.96646  -0.95456  -0.93161  -0.91121  -0.86689
 Alpha  occ. eigenvalues --   -0.85188  -0.84457  -0.84207  -0.83793  -0.82800
 Alpha  occ. eigenvalues --   -0.82593  -0.78953  -0.75846  -0.74803  -0.74114
 Alpha  occ. eigenvalues --   -0.73543  -0.73449  -0.73422  -0.71602  -0.69277
 Alpha  occ. eigenvalues --   -0.67798  -0.66809  -0.66648  -0.65649  -0.64571
 Alpha  occ. eigenvalues --   -0.63913  -0.63354  -0.63090  -0.62877  -0.62387
 Alpha  occ. eigenvalues --   -0.60679  -0.59844  -0.59632  -0.59494  -0.59434
 Alpha  occ. eigenvalues --   -0.58901  -0.58469  -0.57002  -0.56870  -0.56814
 Alpha  occ. eigenvalues --   -0.56067  -0.55863  -0.55120  -0.54527  -0.54294
 Alpha  occ. eigenvalues --   -0.53753  -0.53454  -0.53120  -0.52726  -0.52597
 Alpha  occ. eigenvalues --   -0.52185  -0.52142  -0.51777  -0.51246  -0.50670
 Alpha  occ. eigenvalues --   -0.50232  -0.49582  -0.49521  -0.48920  -0.48808
 Alpha  occ. eigenvalues --   -0.48643  -0.48370  -0.48021  -0.47540  -0.47483
 Alpha  occ. eigenvalues --   -0.47465  -0.45593  -0.45388  -0.44094  -0.42806
 Alpha  occ. eigenvalues --   -0.41722  -0.39583  -0.39440  -0.37740  -0.37579
 Alpha  occ. eigenvalues --   -0.37303  -0.36486  -0.36230  -0.35859  -0.35077
 Alpha  occ. eigenvalues --   -0.34064  -0.33989  -0.33280  -0.33133  -0.32827
 Alpha  occ. eigenvalues --   -0.32526  -0.32206  -0.32020  -0.31925  -0.31483
 Alpha  occ. eigenvalues --   -0.30877  -0.28597  -0.26318  -0.25353
 Alpha virt. eigenvalues --    0.03052   0.05034   0.07366   0.07881   0.08306
 Alpha virt. eigenvalues --    0.09389   0.09690   0.10411   0.11140   0.12422
 Alpha virt. eigenvalues --    0.12812   0.13566   0.14448   0.14605   0.14748

 Mulliken charges:
               1
     1  N   -0.311171
     2  C    0.180834
     3  C    0.031723
     4  N   -0.259053
     5  C    0.134460
     6  H    0.028321
     7  N   -0.286558
     8  C    0.123157
     9  H    0.012729
    10  N   -0.287403
    11  C    0.241427
    12  C    0.121420
    13  N   -0.054194
    14  H    0.107664
    15  H    0.088679
    16  H    0.026507
    17  H    0.035253
    18  H    0.026775
    19  N   -0.306497
    20  C    0.229469
    21  C    0.181989
    22  N   -0.108344
    23  H    0.119197
    24  H    0.114069
    25  N   -0.271494
    26  C    0.197841
    27  N   -0.107635
    28  H    0.118511
    29  C    0.150153
    30  O   -0.320403
    31  C   -0.006883
    32  N   -0.219007
    33  C    0.130712
    34  H    0.031333
    35  H    0.028950
    36  H    0.027687
    37  H    0.024784
    38  H    0.061012
    39  H    0.060300
    40  H    0.071317
    41  H    0.031682
    42  C   -0.112710
    43  O   -0.267629
    44  C    0.175061
    45  H    0.135408
    46  N   -0.138345
    47  O   -0.351914
    48  C    0.366879
    49  H    0.048114
    50  C    0.174881
    51  C    0.042583
    52  N   -0.296500
    53  H    0.027397
    54  H    0.039722
    55  H   -0.003370
    56  H    0.122101
    57  H    0.115746
    58  N   -0.061885
    59  C    0.113888
    60  C    0.222547
    61  N   -0.258762
    62  H    0.053256
    63  C    0.149847
    64  N   -0.297687
    65  H    0.026844
    66  C    0.128295
    67  N   -0.264786
    68  C    0.026897
    69  C    0.193475
    70  N   -0.308667
 Sum of Mulliken charges =  -0.00000

 Dipole moment (field-independent basis, Debye):
    X=              7.3223    Y=              5.5663    Z=              2.8564  Tot=              9.6312
 Quadrupole moment (field-independent basis, Debye-Ang):
   XX=           -143.4606   YY=           -221.9000   ZZ=           -252.5942
   XY=              6.7478   XZ=             14.7385   YZ=            -10.0627

 Normal termination of Gaussian 16 at Wed Jan 24 07:22:21 2018.
