 Gaussian 16, Revision A.03,
 Gaussian 16:  EM64L-G16RevA.03 25-Dec-2016

 ---------------------------------------
 #p wb97xd/cc-pvdz sp scf=(maxcycles=20)
 ---------------------------------------

 ------------------
 Base pair stacking
 ------------------
 Symbolic Z-matrix:
 Charge =  0 Multiplicity = 1

                         Standard orientation:
 ---------------------------------------------------------------------
 Center     Atomic      Atomic             Coordinates (Angstroms)
 Number     Number       Type             X           Y           Z
 ---------------------------------------------------------------------
      1          7           0       -6.708458   -1.531681    0.388588
      2          6           0       -8.094849   -1.025829    0.394036
      3          6           0       -4.525586   -1.697215    0.600701
      4          7           0       -4.962626   -2.922301    0.118126
      5          6           0       -6.260231   -2.773545    0.009650
      6          1           0       -6.945187   -3.544390   -0.344703
      7          7           0       -3.158143    0.057763    1.383702
      8          6           0       -4.278720    0.778208    1.497095
      9          1           0       -4.143481    1.793004    1.868781
     10          7           0       -5.535351    0.434913    1.221572
     11          6           0       -5.590354   -0.829849    0.772382
     12          6           0       -3.246897   -1.211217    0.928862
     13          7           0       -2.129430   -1.931965    0.814978
     14          1           0       -2.147922   -2.875588    0.482625
     15          1           0       -1.236168   -1.553503    1.057851
     16          1           0       -8.655978   -1.593777    0.996320
     17          1           0       -8.104785   -0.081985    0.722951
     18          1           0       -8.467157   -1.057723   -0.533520
     19          7           0       -2.605684    2.754411   -1.732123
     20          6           0       -1.280072    2.438780   -1.555472
     21          6           0       -3.181727    4.110098   -1.627411
     22          7           0        1.978335    3.418855   -0.859779
     23          1           0        2.875747    2.987248   -0.772655
     24          1           0        1.935269    4.408416   -0.719679
     25          7           0       -0.289042    3.307105   -1.258964
     26          6           0        0.881362    2.703629   -1.151367
     27          7           0        1.069027    1.353228   -1.320818
     28          1           0        1.999732    0.978360   -1.219624
     29          6           0        0.063863    0.440961   -1.626261
     30          8           0        0.339640   -0.757888   -1.758275
     31          6           0       -1.199248    1.074467   -1.745016
     32          7           0       -2.448960    0.544253   -2.034822
     33          6           0       -3.249805    1.575033   -2.016431
     34          1           0       -4.323165    1.530888   -2.204095
     35          1           0       -3.872352    4.125745   -0.905196
     36          1           0       -2.456932    4.761892   -1.408064
     37          1           0       -3.603735    4.362861   -2.497377
     38          1           0        6.741074   -0.351039    0.047269
     39          1           0        6.979821   -0.371403   -1.698370
     40          1           0        5.828149    0.754927   -0.979750
     41          1           0        4.712972   -4.568232   -1.070179
     42          6           0        4.481320   -3.503976   -1.114274
     43          8           0        2.153640   -3.835825   -1.428740
     44          6           0        3.124779   -3.089989   -1.304632
     45          1           0        1.996443   -1.391499   -1.478751
     46          7           0        2.941657   -1.722490   -1.345620
     47          8           0        3.646711    0.435058   -1.274356
     48          6           0        3.906840   -0.754294   -1.224909
     49          1           0        6.491587   -2.845802   -0.847017
     50          6           0        5.444699   -2.583180   -0.993252
     51          6           0        6.254832   -0.234604   -0.909855
     52          7           0        5.189774   -1.232321   -1.043880
     53          1           0        3.585747    3.543405    3.631505
     54          1           0        2.431549    3.735866    2.494446
     55          1           0        4.007794    3.784070    2.073492
     56          1           0        1.347176   -3.080199    1.145090
     57          1           0        2.953665   -2.769691    1.627683
     58          7           0        2.037437   -2.416942    1.434539
     59          6           0        1.749909   -1.119510    1.557804
     60          6           0        2.236204    1.158751    2.042318
     61          7           0        0.997142    1.604104    1.776213
     62          1           0       -0.818984    0.871535    1.171537
     63          6           0        0.208397    0.596961    1.406851
     64          7           0        0.494485   -0.703174    1.282781
     65          1           0        5.346224    1.326442    2.909409
     66          6           0        4.353682    1.006088    2.591342
     67          7           0        4.024266   -0.230983    2.310573
     68          6           0        2.684241   -0.148221    1.960985
     69          6           0        3.337644    3.357210    2.680836
     70          7           0        3.320040    1.899634    2.450234
 ---------------------------------------------------------------------

 SCF Done:  E(RwB97XD) =  -2048.74561547     A.U. after   15 cycles

 The electronic state is 1-A.
 Alpha  occ. eigenvalues --  -19.26035 -19.22435 -19.20760 -14.52641 -14.51608
 Alpha  occ. eigenvalues --  -14.48827 -14.48797 -14.48073 -14.47093 -14.47045
 Alpha  occ. eigenvalues --  -14.46716 -14.44655 -14.43072 -14.43036 -14.42205
 Alpha  occ. eigenvalues --  -14.42064 -14.41441 -14.40908 -14.40854 -14.40115
 Alpha  occ. eigenvalues --  -10.45687 -10.41429 -10.40521 -10.38690 -10.38367
 Alpha  occ. eigenvalues --  -10.38130 -10.37208 -10.36140 -10.35371 -10.35353
 Alpha  occ. eigenvalues --  -10.34572 -10.34473 -10.34104 -10.33376 -10.33373
 Alpha  occ. eigenvalues --  -10.33297 -10.33085 -10.31637 -10.31378 -10.31012
 Alpha  occ. eigenvalues --  -10.30898 -10.28525 -10.28235  -1.19618  -1.14277
 Alpha  occ. eigenvalues --   -1.13439  -1.13367  -1.11370  -1.10671  -1.09532
 Alpha  occ. eigenvalues --   -1.08759  -1.08045  -1.04940  -1.03623  -1.02749
 Alpha  occ. eigenvalues --   -1.00374  -1.00112  -1.00006  -0.98671  -0.96965
 Alpha  occ. eigenvalues --   -0.96641  -0.95618  -0.92586  -0.91328  -0.86686
 Alpha  occ. eigenvalues --   -0.85124  -0.84210  -0.83956  -0.83820  -0.82563
 Alpha  occ. eigenvalues --   -0.82328  -0.79132  -0.75992  -0.74747  -0.73879
 Alpha  occ. eigenvalues --   -0.73707  -0.73604  -0.72877  -0.71043  -0.69380
 Alpha  occ. eigenvalues --   -0.67582  -0.66788  -0.66277  -0.65721  -0.64673
 Alpha  occ. eigenvalues --   -0.63924  -0.63214  -0.62833  -0.62645  -0.61953
 Alpha  occ. eigenvalues --   -0.60205  -0.59894  -0.59754  -0.59498  -0.59012
 Alpha  occ. eigenvalues --   -0.58633  -0.58571  -0.56722  -0.56501  -0.56425
 Alpha  occ. eigenvalues --   -0.56159  -0.55349  -0.54746  -0.54609  -0.54378
 Alpha  occ. eigenvalues --   -0.53811  -0.53614  -0.53085  -0.52866  -0.52653
 Alpha  occ. eigenvalues --   -0.52518  -0.51870  -0.51763  -0.50753  -0.50320
 Alpha  occ. eigenvalues --   -0.50189  -0.49674  -0.49229  -0.49097  -0.48991
 Alpha  occ. eigenvalues --   -0.48576  -0.48396  -0.47996  -0.47795  -0.47574
 Alpha  occ. eigenvalues --   -0.46954  -0.45577  -0.45039  -0.44369  -0.43393
 Alpha  occ. eigenvalues --   -0.41144  -0.39766  -0.39613  -0.37452  -0.37368
 Alpha  occ. eigenvalues --   -0.37173  -0.36833  -0.36526  -0.35909  -0.34438
 Alpha  occ. eigenvalues --   -0.33771  -0.33604  -0.33480  -0.33357  -0.33024
 Alpha  occ. eigenvalues --   -0.32815  -0.32487  -0.32278  -0.31923  -0.30918
 Alpha  occ. eigenvalues --   -0.30348  -0.28879  -0.25719  -0.25609
 Alpha virt. eigenvalues --    0.02668   0.05018   0.07562   0.07953   0.08647
 Alpha virt. eigenvalues --    0.09253   0.09497   0.11007   0.11424   0.11814
 Alpha virt. eigenvalues --    0.12665   0.13997   0.14648   0.14733   0.15144

 Mulliken charges:
               1
     1  N   -0.311314
     2  C    0.180833
     3  C    0.037840
     4  N   -0.258302
     5  C    0.132955
     6  H    0.026324
     7  N   -0.291270
     8  C    0.130616
     9  H    0.009883
    10  N   -0.291070
    11  C    0.239209
    12  C    0.122760
    13  N   -0.052128
    14  H    0.110006
    15  H    0.090389
    16  H    0.025679
    17  H    0.033994
    18  H    0.025344
    19  N   -0.311472
    20  C    0.245320
    21  C    0.180996
    22  N   -0.119412
    23  H    0.114230
    24  H    0.116410
    25  N   -0.302780
    26  C    0.237548
    27  N   -0.130927
    28  H    0.114776
    29  C    0.157729
    30  O   -0.319436
    31  C    0.005832
    32  N   -0.223562
    33  C    0.130618
    34  H    0.029010
    35  H    0.030668
    36  H    0.028118
    37  H    0.024502
    38  H    0.062725
    39  H    0.059321
    40  H    0.072377
    41  H    0.031051
    42  C   -0.114152
    43  O   -0.271923
    44  C    0.154598
    45  H    0.136823
    46  N   -0.123798
    47  O   -0.350402
    48  C    0.357363
    49  H    0.049656
    50  C    0.178153
    51  C    0.042153
    52  N   -0.289703
    53  H    0.033167
    54  H    0.042413
    55  H    0.019228
    56  H    0.128189
    57  H    0.112835
    58  N   -0.055543
    59  C    0.095918
    60  C    0.234025
    61  N   -0.262646
    62  H    0.046328
    63  C    0.159816
    64  N   -0.298529
    65  H    0.030075
    66  C    0.132656
    67  N   -0.268343
    68  C    0.021651
    69  C    0.176827
    70  N   -0.312228
 Sum of Mulliken charges =  -0.00000

 Dipole moment (field-independent basis, Debye):
    X=              8.1790    Y=              5.8796    Z=              1.8824  Tot=             10.2474
 Quadrupole moment (field-independent basis, Debye-Ang):
   XX=           -147.5508   YY=           -219.7701   ZZ=           -251.4473
   XY=              2.9044   XZ=             10.3856   YZ=             -6.0711

 Normal termination of Gaussian 16 at Tue Jan 23 17:29:15 2018.
