 Gaussian 16, Revision A.03,
 Gaussian 16:  EM64L-G16RevA.03 25-Dec-2016

 ---------------------------------------
 #p wb97xd/cc-pvdz sp scf=(maxcycles=20)
 ---------------------------------------

 ------------------
 Base pair stacking
 ------------------
 Symbolic Z-matrix:
 Charge =  0 Multiplicity = 1

                         Standard orientation:
 ---------------------------------------------------------------------
 Center     Atomic      Atomic             Coordinates (Angstroms)
 Number     Number       Type             X           Y           Z
 ---------------------------------------------------------------------
      1          7           0       -6.089212   -1.590178    0.849079
      2          6           0       -7.470629   -1.085936    0.724757
      3          6           0       -3.905191   -1.716474    1.075776
      4          7           0       -4.360421   -3.022618    0.968652
      5          6           0       -5.657997   -2.894247    0.836365
      6          1           0       -6.355056   -3.725287    0.724864
      7          7           0       -2.510484    0.171214    1.308971
      8          6           0       -3.622579    0.908486    1.223776
      9          1           0       -3.472638    1.985349    1.288108
     10          7           0       -4.886143    0.517081    1.071754
     11          6           0       -4.959293   -0.822490    1.003782
     12          6           0       -2.617497   -1.173581    1.237171
     13          7           0       -1.508528   -1.911241    1.322013
     14          1           0       -1.540514   -2.910177    1.273729
     15          1           0       -0.608414   -1.490762    1.436666
     16          1           0       -8.028413   -1.450626    1.470451
     17          1           0       -7.467102   -0.087405    0.769993
     18          1           0       -7.856355   -1.376889   -0.150778
     19          7           0       -3.367383    2.504676   -1.504049
     20          6           0       -2.029061    2.229686   -1.357954
     21          6           0       -4.001966    3.814537   -1.254512
     22          7           0        1.184200    3.269060   -0.547799
     23          1           0        2.099710    2.870005   -0.504871
     24          1           0        1.098118    4.234663   -0.300978
     25          7           0       -1.076564    3.102858   -0.965062
     26          6           0        0.119196    2.542770   -0.919507
     27          7           0        0.365454    1.228309   -1.234237
     28          1           0        1.311744    0.885519   -1.171044
     29          6           0       -0.599255    0.311859   -1.640839
     30          8           0       -0.271532   -0.852342   -1.901540
     31          6           0       -1.888948    0.898948   -1.694569
     32          7           0       -3.114636    0.349552   -2.044936
     33          6           0       -3.959707    1.336373   -1.917390
     34          1           0       -5.030328    1.266239   -2.112675
     35          1           0       -4.691815    3.721362   -0.537413
     36          1           0       -3.306073    4.469488   -0.962870
     37          1           0       -4.435555    4.141929   -2.093336
     38          1           0        6.108016   -0.366298   -0.039024
     39          1           0        6.345493   -0.186028   -1.775621
     40          1           0        5.146533    0.804143   -0.942897
     41          1           0        4.264758   -4.520976   -1.616261
     42          6           0        3.986800   -3.469346   -1.545104
     43          8           0        1.675487   -3.865966   -1.902338
     44          6           0        2.613273   -3.096525   -1.694232
     45          1           0        1.411647   -1.439909   -1.686583
     46          7           0        2.370576   -1.741974   -1.586810
     47          8           0        2.980817    0.423613   -1.278554
     48          6           0        3.292682   -0.751597   -1.357906
     49          1           0        5.966709   -2.757323   -1.200442
     50          6           0        4.909184   -2.526152   -1.321053
     51          6           0        5.616094   -0.167605   -0.979562
     52          7           0        4.595466   -1.190196   -1.225279
     53          1           0        4.296798    4.066192    2.391690
     54          1           0        3.128412    3.940466    1.259801
     55          1           0        4.698907    3.845815    0.825431
     56          1           0        1.961582   -2.962175    1.928743
     57          1           0        3.577587   -2.547525    2.284722
     58          7           0        2.662022   -2.252866    2.008778
     59          6           0        2.388378   -0.970743    1.758857
     60          6           0        2.902694    1.344425    1.565998
     61          7           0        1.664173    1.711139    1.197195
     62          1           0       -0.167097    0.859906    0.847273
     63          6           0        0.860913    0.650757    1.140037
     64          7           0        1.133093   -0.634163    1.389975
     65          1           0        6.026133    1.712664    2.314792
     66          6           0        5.026225    1.327648    2.112537
     67          7           0        4.681360    0.066339    2.201035
     68          6           0        3.337327    0.063063    1.857072
     69          6           0        4.033494    3.619170    1.536798
     70          7           0        3.999055    2.156871    1.733033
 ---------------------------------------------------------------------

 SCF Done:  E(RwB97XD) =  -2048.71114062     A.U. after   15 cycles

 The electronic state is 1-A.
 Alpha  occ. eigenvalues --  -19.25734 -19.21809 -19.20422 -14.52509 -14.52277
 Alpha  occ. eigenvalues --  -14.48825 -14.48397 -14.48100 -14.47696 -14.46452
 Alpha  occ. eigenvalues --  -14.45505 -14.45421 -14.44022 -14.43222 -14.42545
 Alpha  occ. eigenvalues --  -14.41703 -14.41479 -14.41093 -14.40457 -14.40360
 Alpha  occ. eigenvalues --  -10.45333 -10.40548 -10.39936 -10.39740 -10.37914
 Alpha  occ. eigenvalues --  -10.37898 -10.37657 -10.36991 -10.35598 -10.35456
 Alpha  occ. eigenvalues --  -10.34803 -10.34536 -10.34149 -10.33946 -10.33431
 Alpha  occ. eigenvalues --  -10.33227 -10.32979 -10.32317 -10.31071 -10.30986
 Alpha  occ. eigenvalues --  -10.30595 -10.28610 -10.27716  -1.19343  -1.15155
 Alpha  occ. eigenvalues --   -1.13016  -1.12844  -1.11405  -1.10309  -1.09213
 Alpha  occ. eigenvalues --   -1.09091  -1.08213  -1.05158  -1.04659  -1.02315
 Alpha  occ. eigenvalues --   -1.01032  -1.00638  -0.99309  -0.98301  -0.97089
 Alpha  occ. eigenvalues --   -0.96591  -0.96251  -0.92842  -0.90889  -0.87636
 Alpha  occ. eigenvalues --   -0.86161  -0.84034  -0.83744  -0.83366  -0.82425
 Alpha  occ. eigenvalues --   -0.82184  -0.78716  -0.76958  -0.74911  -0.74282
 Alpha  occ. eigenvalues --   -0.73313  -0.73163  -0.73053  -0.71219  -0.70433
 Alpha  occ. eigenvalues --   -0.67033  -0.66824  -0.66474  -0.66343  -0.64351
 Alpha  occ. eigenvalues --   -0.64235  -0.63509  -0.62894  -0.62686  -0.61327
 Alpha  occ. eigenvalues --   -0.60775  -0.60521  -0.60369  -0.59521  -0.59343
 Alpha  occ. eigenvalues --   -0.59184  -0.58104  -0.57032  -0.56544  -0.56330
 Alpha  occ. eigenvalues --   -0.55895  -0.55622  -0.55445  -0.54988  -0.54307
 Alpha  occ. eigenvalues --   -0.54029  -0.53381  -0.53236  -0.53025  -0.52648
 Alpha  occ. eigenvalues --   -0.52468  -0.52160  -0.51881  -0.50926  -0.50322
 Alpha  occ. eigenvalues --   -0.49902  -0.49537  -0.49291  -0.48968  -0.48801
 Alpha  occ. eigenvalues --   -0.48548  -0.48166  -0.47976  -0.47424  -0.47161
 Alpha  occ. eigenvalues --   -0.46955  -0.45736  -0.44950  -0.44274  -0.43719
 Alpha  occ. eigenvalues --   -0.41220  -0.41097  -0.39360  -0.37954  -0.37699
 Alpha  occ. eigenvalues --   -0.37346  -0.36990  -0.36704  -0.35934  -0.34639
 Alpha  occ. eigenvalues --   -0.34190  -0.33752  -0.33586  -0.32982  -0.32422
 Alpha  occ. eigenvalues --   -0.32254  -0.31823  -0.31595  -0.31478  -0.30920
 Alpha  occ. eigenvalues --   -0.30554  -0.29495  -0.26002  -0.24507
 Alpha virt. eigenvalues --    0.03234   0.04099   0.07127   0.07794   0.08632
 Alpha virt. eigenvalues --    0.09587   0.10023   0.10507   0.11011   0.11603
 Alpha virt. eigenvalues --    0.12732   0.13962   0.14179   0.14797   0.15030

 Mulliken charges:
               1
     1  N   -0.313568
     2  C    0.181026
     3  C    0.049208
     4  N   -0.261367
     5  C    0.135598
     6  H    0.026817
     7  N   -0.284683
     8  C    0.141862
     9  H    0.007952
    10  N   -0.290985
    11  C    0.250392
    12  C    0.115811
    13  N   -0.057736
    14  H    0.108135
    15  H    0.085050
    16  H    0.025381
    17  H    0.031228
    18  H    0.027282
    19  N   -0.298286
    20  C    0.229766
    21  C    0.179012
    22  N   -0.059449
    23  H    0.109683
    24  H    0.110559
    25  N   -0.298158
    26  C    0.193688
    27  N   -0.141309
    28  H    0.127579
    29  C    0.158168
    30  O   -0.321551
    31  C    0.016358
    32  N   -0.223427
    33  C    0.127552
    34  H    0.019301
    35  H    0.030705
    36  H    0.026736
    37  H    0.023748
    38  H    0.063226
    39  H    0.057619
    40  H    0.067598
    41  H    0.030035
    42  C   -0.112519
    43  O   -0.264397
    44  C    0.174354
    45  H    0.132455
    46  N   -0.126613
    47  O   -0.341718
    48  C    0.344776
    49  H    0.047134
    50  C    0.169359
    51  C    0.040131
    52  N   -0.287194
    53  H    0.038991
    54  H    0.022676
    55  H    0.030402
    56  H    0.123075
    57  H    0.116922
    58  N   -0.064342
    59  C    0.088684
    60  C    0.263331
    61  N   -0.302710
    62  H    0.039631
    63  C    0.172589
    64  N   -0.299664
    65  H    0.034329
    66  C    0.128236
    67  N   -0.260603
    68  C    0.017821
    69  C    0.179890
    70  N   -0.311579
 Sum of Mulliken charges =  -0.00000

 Dipole moment (field-independent basis, Debye):
    X=              7.7188    Y=              5.8926    Z=              3.2894  Tot=             10.2529
 Quadrupole moment (field-independent basis, Debye-Ang):
   XX=           -151.5295   YY=           -221.3084   ZZ=           -256.1323
   XY=              2.0884   XZ=              2.6321   YZ=            -11.2451

 Normal termination of Gaussian 16 at Tue Jan 23 19:47:05 2018.
