 Gaussian 16, Revision A.03,
 Gaussian 16:  EM64L-G16RevA.03 25-Dec-2016

 ---------------------------------------
 #p wb97xd/cc-pvdz sp scf=(maxcycles=20)
 ---------------------------------------

 ------------------
 Base pair stacking
 ------------------
 Symbolic Z-matrix:
 Charge =  0 Multiplicity = 1

                         Standard orientation:
 ---------------------------------------------------------------------
 Center     Atomic      Atomic             Coordinates (Angstroms)
 Number     Number       Type             X           Y           Z
 ---------------------------------------------------------------------
      1          7           0       -6.881546   -1.466266    0.318906
      2          6           0       -8.242654   -0.945655    0.085798
      3          6           0       -4.721541   -1.618047    0.704456
      4          7           0       -5.187797   -2.919705    0.590330
      5          6           0       -6.470461   -2.776165    0.362620
      6          1           0       -7.170340   -3.599600    0.217487
      7          7           0       -3.318498    0.254581    1.000548
      8          6           0       -4.410266    1.005239    0.821282
      9          1           0       -4.248915    2.081022    0.875257
     10          7           0       -5.665517    0.628291    0.586445
     11          6           0       -5.754032   -0.711258    0.539483
     12          6           0       -3.440582   -1.089794    0.947419
     13          7           0       -2.351904   -1.840802    1.126120
     14          1           0       -2.395590   -2.839975    1.095110
     15          1           0       -1.456021   -1.430529    1.296993
     16          1           0       -8.857901   -1.287240    0.796423
     17          1           0       -8.227163    0.053444    0.111730
     18          1           0       -8.569089   -1.249137   -0.809374
     19          7           0       -2.469788    2.497087   -1.666582
     20          6           0       -1.149724    2.206699   -1.419321
     21          6           0       -3.100561    3.820432   -1.488866
     22          7           0        2.012761    3.217985   -0.400617
     23          1           0        2.916647    2.807285   -0.284222
     24          1           0        1.923958    4.189542   -0.179465
     25          7           0       -0.214592    3.074501   -0.976030
     26          6           0        0.966158    2.499015   -0.833734
     27          7           0        1.214254    1.175091   -1.104303
     28          1           0        2.148248    0.820642   -0.966576
     29          6           0        0.267276    0.263907   -1.561298
     30          8           0        0.595029   -0.909813   -1.775058
     31          6           0       -1.006165    0.867532   -1.719022
     32          7           0       -2.211852    0.328047   -2.145847
     33          6           0       -3.048738    1.328844   -2.098622
     34          1           0       -4.103571    1.269514   -2.368975
     35          1           0       -3.841333    3.751528   -0.821543
     36          1           0       -2.417446    4.471547   -1.160745
     37          1           0       -3.467941    4.136504   -2.362902
     38          1           0        6.831494   -0.473835    0.531508
     39          1           0        7.195434   -0.332512   -1.186699
     40          1           0        5.955173    0.690998   -0.461767
     41          1           0        5.042781   -4.634118   -1.093004
     42          6           0        4.776515   -3.577518   -1.062507
     43          8           0        2.490939   -3.949420   -1.577208
     44          6           0        3.423034   -3.188902   -1.317222
     45          1           0        2.249348   -1.516037   -1.428240
     46          7           0        3.193941   -1.829213   -1.253917
     47          8           0        3.813503    0.333612   -0.944796
     48          6           0        4.112290   -0.847177   -0.978623
     49          1           0        6.737287   -2.885989   -0.590310
     50          6           0        5.694762   -2.642756   -0.791119
     51          6           0        6.411279   -0.287693   -0.445648
     52          7           0        5.395397   -1.300911   -0.744169
     53          1           0        3.452381    4.076559    2.493883
     54          1           0        2.366266    3.943796    1.283582
     55          1           0        3.962199    3.818573    0.965171
     56          1           0        1.049420   -2.926902    2.001121
     57          1           0        2.641911   -2.527400    2.464223
     58          7           0        1.753068   -2.225839    2.117480
     59          6           0        1.517592   -0.945460    1.823628
     60          6           0        2.079632    1.357952    1.623224
     61          7           0        0.876440    1.734099    1.159252
     62          1           0       -0.937837    0.901229    0.695213
     63          6           0        0.063265    0.683962    1.065153
     64          7           0        0.297230   -0.599207    1.358972
     65          1           0        5.146693    1.698289    2.587328
     66          6           0        4.158086    1.323053    2.321252
     67          7           0        3.788569    0.068704    2.409253
     68          6           0        2.472736    0.076944    1.969673
     69          6           0        3.244189    3.615782    1.631127
     70          7           0        3.173491    2.158438    1.852804
 ---------------------------------------------------------------------

 SCF Done:  E(RwB97XD) =  -2048.64936353     A.U. after   15 cycles

 The electronic state is 1-A.
 Alpha  occ. eigenvalues --  -19.25907 -19.21971 -19.20464 -14.52444 -14.52154
 Alpha  occ. eigenvalues --  -14.49304 -14.48589 -14.47918 -14.47433 -14.45949
 Alpha  occ. eigenvalues --  -14.45917 -14.44972 -14.43505 -14.42798 -14.42614
 Alpha  occ. eigenvalues --  -14.41989 -14.41613 -14.41546 -14.40728 -14.40577
 Alpha  occ. eigenvalues --  -10.45530 -10.41322 -10.40100 -10.39164 -10.38017
 Alpha  occ. eigenvalues --  -10.37796 -10.37613 -10.36404 -10.36006 -10.35350
 Alpha  occ. eigenvalues --  -10.34656 -10.34642 -10.34224 -10.33956 -10.33741
 Alpha  occ. eigenvalues --  -10.33588 -10.33030 -10.32019 -10.31370 -10.31099
 Alpha  occ. eigenvalues --  -10.30736 -10.29138 -10.27934  -1.19477  -1.15085
 Alpha  occ. eigenvalues --   -1.13272  -1.13002  -1.11908  -1.10454  -1.09331
 Alpha  occ. eigenvalues --   -1.09071  -1.08408  -1.05571  -1.04019  -1.02528
 Alpha  occ. eigenvalues --   -1.01584  -1.01035  -0.99532  -0.98374  -0.97512
 Alpha  occ. eigenvalues --   -0.96482  -0.96140  -0.93229  -0.91057  -0.87450
 Alpha  occ. eigenvalues --   -0.86097  -0.84489  -0.83928  -0.83703  -0.82830
 Alpha  occ. eigenvalues --   -0.82414  -0.78885  -0.76652  -0.74876  -0.74234
 Alpha  occ. eigenvalues --   -0.73801  -0.73477  -0.73378  -0.71664  -0.70056
 Alpha  occ. eigenvalues --   -0.67696  -0.66875  -0.66697  -0.66422  -0.64470
 Alpha  occ. eigenvalues --   -0.64144  -0.63751  -0.63295  -0.62855  -0.62549
 Alpha  occ. eigenvalues --   -0.60803  -0.60473  -0.60207  -0.59655  -0.59505
 Alpha  occ. eigenvalues --   -0.59068  -0.58585  -0.57252  -0.56942  -0.56853
 Alpha  occ. eigenvalues --   -0.56116  -0.55821  -0.55697  -0.54626  -0.54323
 Alpha  occ. eigenvalues --   -0.53772  -0.53369  -0.53153  -0.52806  -0.52645
 Alpha  occ. eigenvalues --   -0.52448  -0.52243  -0.52026  -0.51287  -0.50717
 Alpha  occ. eigenvalues --   -0.50015  -0.49775  -0.49417  -0.49310  -0.48744
 Alpha  occ. eigenvalues --   -0.48653  -0.48217  -0.48157  -0.47917  -0.47509
 Alpha  occ. eigenvalues --   -0.47309  -0.45809  -0.45547  -0.43988  -0.42671
 Alpha  occ. eigenvalues --   -0.41780  -0.39666  -0.39409  -0.37785  -0.37540
 Alpha  occ. eigenvalues --   -0.37077  -0.37019  -0.36548  -0.35828  -0.34895
 Alpha  occ. eigenvalues --   -0.34126  -0.33982  -0.33323  -0.33139  -0.32593
 Alpha  occ. eigenvalues --   -0.32275  -0.32130  -0.31945  -0.31684  -0.31453
 Alpha  occ. eigenvalues --   -0.30930  -0.28534  -0.26378  -0.25024
 Alpha virt. eigenvalues --    0.03094   0.03967   0.07266   0.07359   0.08418
 Alpha virt. eigenvalues --    0.09303   0.09538   0.10362   0.11405   0.12362
 Alpha virt. eigenvalues --    0.12806   0.13708   0.14127   0.14339   0.14989

 Mulliken charges:
               1
     1  N   -0.312159
     2  C    0.180797
     3  C    0.036325
     4  N   -0.259840
     5  C    0.135054
     6  H    0.028436
     7  N   -0.284552
     8  C    0.122549
     9  H    0.011534
    10  N   -0.286900
    11  C    0.244144
    12  C    0.123201
    13  N   -0.056697
    14  H    0.107516
    15  H    0.088001
    16  H    0.026408
    17  H    0.034560
    18  H    0.027378
    19  N   -0.305761
    20  C    0.218753
    21  C    0.182480
    22  N   -0.090701
    23  H    0.116667
    24  H    0.105115
    25  N   -0.267335
    26  C    0.177385
    27  N   -0.104275
    28  H    0.121483
    29  C    0.128534
    30  O   -0.317812
    31  C    0.014383
    32  N   -0.219639
    33  C    0.123820
    34  H    0.029363
    35  H    0.023756
    36  H    0.027423
    37  H    0.024653
    38  H    0.061697
    39  H    0.059862
    40  H    0.070881
    41  H    0.031474
    42  C   -0.113411
    43  O   -0.265168
    44  C    0.177677
    45  H    0.135683
    46  N   -0.137816
    47  O   -0.349271
    48  C    0.362478
    49  H    0.047650
    50  C    0.173284
    51  C    0.041832
    52  N   -0.294083
    53  H    0.026953
    54  H    0.039204
    55  H    0.007308
    56  H    0.122299
    57  H    0.116435
    58  N   -0.067691
    59  C    0.114017
    60  C    0.220267
    61  N   -0.263811
    62  H    0.078099
    63  C    0.155160
    64  N   -0.298332
    65  H    0.030961
    66  C    0.134637
    67  N   -0.264102
    68  C    0.027392
    69  C    0.183256
    70  N   -0.318869
 Sum of Mulliken charges =  -0.00000

 Dipole moment (field-independent basis, Debye):
    X=              7.1455    Y=              5.3666    Z=              3.7264  Tot=              9.6822
 Quadrupole moment (field-independent basis, Debye-Ang):
   XX=           -145.8735   YY=           -223.3030   ZZ=           -254.6354
   XY=              5.2963   XZ=             11.9214   YZ=            -11.6897

 Normal termination of Gaussian 16 at Tue Jan 23 22:06:10 2018.
