 Gaussian 16, Revision A.03,
 Gaussian 16:  EM64L-G16RevA.03 25-Dec-2016

 ---------------------------------------
 #p wb97xd/cc-pvdz sp scf=(maxcycles=20)
 ---------------------------------------

 ------------------
 Base pair stacking
 ------------------
 Symbolic Z-matrix:
 Charge =  0 Multiplicity = 1

                         Standard orientation:
 ---------------------------------------------------------------------
 Center     Atomic      Atomic             Coordinates (Angstroms)
 Number     Number       Type             X           Y           Z
 ---------------------------------------------------------------------
      1          7           0       -6.680376   -1.518494    0.433727
      2          6           0       -8.059802   -0.999782    0.355299
      3          6           0       -4.502947   -1.681667    0.697274
      4          7           0       -4.949968   -2.952339    0.365170
      5          6           0       -6.243901   -2.803175    0.219689
      6          1           0       -6.934393   -3.604271   -0.045671
      7          7           0       -3.122542    0.141424    1.274993
      8          6           0       -4.234733    0.883436    1.280782
      9          1           0       -4.090809    1.935129    1.524668
     10          7           0       -5.492102    0.523055    1.031697
     11          6           0       -5.558142   -0.787258    0.743347
     12          6           0       -3.222305   -1.173391    0.981074
     13          7           0       -2.113215   -1.915728    0.974788
     14          1           0       -2.139988   -2.893246    0.762763
     15          1           0       -1.218251   -1.520296    1.181694
     16          1           0       -8.636463   -1.481283    1.015442
     17          1           0       -8.061405   -0.022139    0.563469
     18          1           0       -8.420155   -1.143181   -0.566432
     19          7           0       -2.665104    2.643525   -1.707898
     20          6           0       -1.338917    2.341738   -1.512480
     21          6           0       -3.264186    3.986326   -1.571175
     22          7           0        1.888123    3.345927   -0.712739
     23          1           0        2.790008    2.924926   -0.620086
     24          1           0        1.826735    4.329515   -0.540961
     25          7           0       -0.368080    3.214177   -1.165518
     26          6           0        0.808924    2.624752   -1.052051
     27          7           0        1.021068    1.283685   -1.261893
     28          1           0        1.955047    0.919400   -1.152563
     29          6           0        0.036973    0.367427   -1.619533
     30          8           0        0.334056   -0.822152   -1.785004
     31          6           0       -1.232914    0.985864   -1.745215
     32          7           0       -2.467707    0.447274   -2.080017
     33          6           0       -3.284608    1.464947   -2.045267
     34          1           0       -4.352851    1.411284   -2.258019
     35          1           0       -3.970435    3.967652   -0.864309
     36          1           0       -2.554475    4.641029   -1.314383
     37          1           0       -3.671119    4.261770   -2.441427
     38          1           0        6.687851   -0.381576    0.174340
     39          1           0        6.964604   -0.340069   -1.565297
     40          1           0        5.780376    0.744521   -0.835486
     41          1           0        4.749867   -4.588495   -1.126664
     42          6           0        4.502799   -3.526894   -1.140640
     43          8           0        2.187874   -3.882313   -1.517396
     44          6           0        3.144453   -3.126805   -1.347193
     45          1           0        1.994007   -1.440264   -1.489971
     46          7           0        2.941138   -1.761557   -1.346961
     47          8           0        3.611029    0.402558   -1.188756
     48          6           0        3.888390   -0.783812   -1.172943
     49          1           0        6.496396   -2.848466   -0.807300
     50          6           0        5.448967   -2.596564   -0.967920
     51          6           0        6.220692   -0.240403   -0.788936
     52          7           0        5.174348   -1.248665   -0.979450
     53          1           0        3.637172    3.802005    3.169417
     54          1           0        2.500871    3.864089    2.000208
     55          1           0        4.083072    3.840803    1.600000
     56          1           0        1.342940   -3.054139    1.497467
     57          1           0        2.946913   -2.704452    1.961275
     58          7           0        2.038150   -2.367969    1.711959
     59          6           0        1.766495   -1.062048    1.667796
     60          6           0        2.276901    1.253107    1.870900
     61          7           0        1.047591    1.676093    1.532838
     62          1           0       -0.770036    0.894862    0.997551
     63          6           0        0.250339    0.639914    1.280579
     64          7           0        0.520542   -0.668766    1.324263
     65          1           0        5.377106    1.491677    2.756343
     66          6           0        4.384649    1.145646    2.466100
     67          7           0        4.042394   -0.112907    2.337308
     68          6           0        2.708359   -0.058914    1.960243
     69          6           0        3.399224    3.501180    2.245899
     70          7           0        3.365092    2.026512    2.199076
 ---------------------------------------------------------------------

 SCF Done:  E(RwB97XD) =  -2048.73974993     A.U. after   15 cycles

 The electronic state is 1-A.
 Alpha  occ. eigenvalues --  -19.25954 -19.22183 -19.20673 -14.52506 -14.51817
 Alpha  occ. eigenvalues --  -14.48937 -14.48745 -14.47974 -14.47117 -14.46864
 Alpha  occ. eigenvalues --  -14.46817 -14.44809 -14.43252 -14.43015 -14.42313
 Alpha  occ. eigenvalues --  -14.42115 -14.41592 -14.41100 -14.40755 -14.40294
 Alpha  occ. eigenvalues --  -10.45584 -10.41267 -10.40291 -10.38936 -10.38256
 Alpha  occ. eigenvalues --  -10.37939 -10.37376 -10.36294 -10.35551 -10.35281
 Alpha  occ. eigenvalues --  -10.34729 -10.34384 -10.34253 -10.33686 -10.33536
 Alpha  occ. eigenvalues --  -10.33273 -10.33203 -10.31786 -10.31222 -10.31118
 Alpha  occ. eigenvalues --  -10.30823 -10.28697 -10.28142  -1.19522  -1.14476
 Alpha  occ. eigenvalues --   -1.13286  -1.13188  -1.11518  -1.10585  -1.09398
 Alpha  occ. eigenvalues --   -1.08668  -1.08257  -1.05125  -1.03833  -1.02611
 Alpha  occ. eigenvalues --   -1.00578  -1.00336  -0.99890  -0.98572  -0.97125
 Alpha  occ. eigenvalues --   -0.96552  -0.95836  -0.92778  -0.91163  -0.86909
 Alpha  occ. eigenvalues --   -0.85390  -0.84123  -0.84104  -0.83705  -0.82485
 Alpha  occ. eigenvalues --   -0.82473  -0.78977  -0.76219  -0.74675  -0.73932
 Alpha  occ. eigenvalues --   -0.73760  -0.73466  -0.73053  -0.71222  -0.69628
 Alpha  occ. eigenvalues --   -0.67476  -0.66648  -0.66457  -0.65967  -0.64540
 Alpha  occ. eigenvalues --   -0.63819  -0.63491  -0.62843  -0.62754  -0.61869
 Alpha  occ. eigenvalues --   -0.60392  -0.59942  -0.59770  -0.59591  -0.59232
 Alpha  occ. eigenvalues --   -0.58809  -0.58460  -0.56810  -0.56638  -0.56528
 Alpha  occ. eigenvalues --   -0.56055  -0.55544  -0.55077  -0.54607  -0.54442
 Alpha  occ. eigenvalues --   -0.53707  -0.53556  -0.53033  -0.52986  -0.52609
 Alpha  occ. eigenvalues --   -0.52468  -0.52060  -0.51904  -0.50911  -0.50350
 Alpha  occ. eigenvalues --   -0.50197  -0.49529  -0.49374  -0.48925  -0.48794
 Alpha  occ. eigenvalues --   -0.48716  -0.48303  -0.48087  -0.47886  -0.47463
 Alpha  occ. eigenvalues --   -0.47117  -0.45637  -0.45176  -0.44149  -0.43405
 Alpha  occ. eigenvalues --   -0.41334  -0.39939  -0.39523  -0.37435  -0.37342
 Alpha  occ. eigenvalues --   -0.37279  -0.36951  -0.36649  -0.35892  -0.34286
 Alpha  occ. eigenvalues --   -0.33935  -0.33650  -0.33538  -0.33345  -0.33059
 Alpha  occ. eigenvalues --   -0.32716  -0.32394  -0.32086  -0.31843  -0.31061
 Alpha  occ. eigenvalues --   -0.30523  -0.28947  -0.25917  -0.25496
 Alpha virt. eigenvalues --    0.02900   0.04796   0.07521   0.07753   0.08740
 Alpha virt. eigenvalues --    0.09232   0.09493   0.10814   0.11342   0.11744
 Alpha virt. eigenvalues --    0.12738   0.13930   0.14583   0.14657   0.14780

 Mulliken charges:
               1
     1  N   -0.311619
     2  C    0.180792
     3  C    0.038975
     4  N   -0.259098
     5  C    0.133851
     6  H    0.026974
     7  N   -0.289015
     8  C    0.128507
     9  H    0.010535
    10  N   -0.290533
    11  C    0.241163
    12  C    0.122779
    13  N   -0.053777
    14  H    0.109035
    15  H    0.089155
    16  H    0.025867
    17  H    0.033827
    18  H    0.026085
    19  N   -0.310018
    20  C    0.239401
    21  C    0.180721
    22  N   -0.106021
    23  H    0.114062
    24  H    0.115634
    25  N   -0.295364
    26  C    0.219322
    27  N   -0.121638
    28  H    0.116169
    29  C    0.145018
    30  O   -0.317855
    31  C    0.014358
    32  N   -0.223295
    33  C    0.128335
    34  H    0.028517
    35  H    0.030186
    36  H    0.027777
    37  H    0.024322
    38  H    0.062446
    39  H    0.059196
    40  H    0.071691
    41  H    0.030838
    42  C   -0.115451
    43  O   -0.268544
    44  C    0.167296
    45  H    0.136173
    46  N   -0.130137
    47  O   -0.349770
    48  C    0.357625
    49  H    0.048562
    50  C    0.175738
    51  C    0.041537
    52  N   -0.290314
    53  H    0.035671
    54  H    0.039299
    55  H    0.020527
    56  H    0.126173
    57  H    0.114498
    58  N   -0.062131
    59  C    0.099503
    60  C    0.225427
    61  N   -0.260792
    62  H    0.051756
    63  C    0.158688
    64  N   -0.298942
    65  H    0.030647
    66  C    0.132834
    67  N   -0.266248
    68  C    0.025701
    69  C    0.168359
    70  N   -0.310990
 Sum of Mulliken charges =  -0.00000

 Dipole moment (field-independent basis, Debye):
    X=              7.8108    Y=              5.7805    Z=              2.5044  Tot=             10.0346
 Quadrupole moment (field-independent basis, Debye-Ang):
   XX=           -147.7391   YY=           -220.4819   ZZ=           -253.0749
   XY=              3.6578   XZ=              9.9843   YZ=             -8.4651

 Normal termination of Gaussian 16 at Tue Jan 23 13:59:36 2018.
