 Gaussian 16, Revision A.03,
 Gaussian 16:  EM64L-G16RevA.03 25-Dec-2016

 ---------------------------------------
 #p wb97xd/cc-pvdz sp scf=(maxcycles=20)
 ---------------------------------------

 ------------------
 Base pair stacking
 ------------------
 Symbolic Z-matrix:
 Charge =  0 Multiplicity = 1

                         Standard orientation:
 ---------------------------------------------------------------------
 Center     Atomic      Atomic             Coordinates (Angstroms)
 Number     Number       Type             X           Y           Z
 ---------------------------------------------------------------------
      1          7           0       -6.729856   -1.547640    0.324419
      2          6           0       -8.122470   -1.067698    0.415356
      3          6           0       -4.542296   -1.708363    0.485815
      4          7           0       -4.970087   -2.862684   -0.153927
      5          6           0       -6.270892   -2.719652   -0.225559
      6          1           0       -6.950663   -3.445097   -0.673414
      7          7           0       -3.186951   -0.056346    1.484224
      8          6           0       -4.315068    0.625401    1.708143
      9          1           0       -4.187844    1.582051    2.213000
     10          7           0       -5.570864    0.304338    1.403499
     11          6           0       -5.615717   -0.888198    0.786835
     12          6           0       -3.265572   -1.252795    0.861789
     13          7           0       -2.140564   -1.934814    0.637375
     14          1           0       -2.151446   -2.824601    0.179785
     15          1           0       -1.248986   -1.579821    0.918837
     16          1           0       -8.667792   -1.720517    0.941303
     17          1           0       -8.140060   -0.177635    0.869907
     18          1           0       -8.507172   -0.978538   -0.503365
     19          7           0       -2.549816    2.890265   -1.717608
     20          6           0       -1.225504    2.557244   -1.564814
     21          6           0       -3.102140    4.256928   -1.628907
     22          7           0        2.063112    3.499510   -0.965742
     23          1           0        2.955516    3.055520   -0.890041
     24          1           0        2.038710    4.492381   -0.846060
     25          7           0       -0.214439    3.415666   -1.310024
     26          6           0        0.948653    2.795926   -1.216467
     27          7           0        1.111304    1.439410   -1.361027
     28          1           0        2.038187    1.051911   -1.273267
     29          6           0        0.085233    0.537104   -1.623464
     30          8           0        0.339199   -0.668545   -1.735913
     31          6           0       -1.170325    1.188107   -1.726697
     32          7           0       -2.434552    0.671957   -1.976110
     33          6           0       -3.218650    1.715602   -1.961486
     34          1           0       -4.296664    1.684692   -2.123352
     35          1           0       -3.775348    4.298949   -0.891463
     36          1           0       -2.362377    4.901518   -1.440435
     37          1           0       -3.540401    4.497925   -2.494155
     38          1           0        6.786671   -0.326145   -0.087672
     39          1           0        6.984146   -0.387331   -1.837506
     40          1           0        5.867245    0.772286   -1.116977
     41          1           0        4.667730   -4.533035   -1.066843
     42          6           0        4.451665   -3.466385   -1.128529
     43          8           0        2.112385   -3.767474   -1.382008
     44          6           0        3.097630   -3.034840   -1.296431
     45          1           0        1.992040   -1.322552   -1.481075
     46          7           0        2.934863   -1.665755   -1.362672
     47          8           0        3.674806    0.481247   -1.354233
     48          6           0        3.917514   -0.710814   -1.285162
     49          1           0        6.477611   -2.834991   -0.921951
     50          6           0        5.431786   -2.558786   -1.049644
     51          6           0        6.280030   -0.222259   -1.035617
     52          7           0        5.196762   -1.205392   -1.123491
     53          1           0        3.541799    3.189804    4.105045
     54          1           0        2.369544    3.518218    3.018740
     55          1           0        3.939047    3.646445    2.589432
     56          1           0        1.354872   -3.066015    0.766253
     57          1           0        2.963740   -2.800463    1.267372
     58          7           0        2.040425   -2.438230    1.135094
     59          6           0        1.737876   -1.174020    1.437437
     60          6           0        2.201315    1.024017    2.222030
     61          7           0        0.953025    1.483158    2.033959
     62          1           0       -0.861682    0.813053    1.356904
     63          6           0        0.172324    0.524161    1.540273
     64          7           0        0.473468   -0.742641    1.236777
     65          1           0        5.320631    1.117884    3.066546
     66          6           0        4.328005    0.829228    2.719708
     67          7           0        4.010766   -0.362830    2.276964
     68          6           0        2.665054   -0.252997    1.957993
     69          6           0        3.282962    3.131085    3.140917
     70          7           0        3.281025    1.718357    2.714084
 ---------------------------------------------------------------------

 SCF Done:  E(RwB97XD) =  -2048.74073934     A.U. after   15 cycles

 The electronic state is 1-A.
 Alpha  occ. eigenvalues --  -19.26162 -19.22779 -19.20892 -14.52855 -14.51388
 Alpha  occ. eigenvalues --  -14.48929 -14.48656 -14.48241 -14.47248 -14.47191
 Alpha  occ. eigenvalues --  -14.46114 -14.44477 -14.42910 -14.42756 -14.42323
 Alpha  occ. eigenvalues --  -14.41808 -14.41292 -14.40963 -14.40716 -14.39926
 Alpha  occ. eigenvalues --  -10.45843 -10.41578 -10.40859 -10.38502 -10.38407
 Alpha  occ. eigenvalues --  -10.38340 -10.37009 -10.35926 -10.35503 -10.35151
 Alpha  occ. eigenvalues --  -10.34584 -10.34354 -10.33956 -10.33401 -10.33210
 Alpha  occ. eigenvalues --  -10.33115 -10.32899 -10.31605 -10.31416 -10.30991
 Alpha  occ. eigenvalues --  -10.30905 -10.28351 -10.28345  -1.19782  -1.14067
 Alpha  occ. eigenvalues --   -1.13864  -1.13493  -1.11221  -1.10786  -1.09743
 Alpha  occ. eigenvalues --   -1.08896  -1.07757  -1.04753  -1.03419  -1.02924
 Alpha  occ. eigenvalues --   -1.00174  -1.00159  -0.99832  -0.98801  -0.96805
 Alpha  occ. eigenvalues --   -0.96750  -0.95355  -0.92389  -0.91575  -0.86454
 Alpha  occ. eigenvalues --   -0.84877  -0.84318  -0.83995  -0.83807  -0.82664
 Alpha  occ. eigenvalues --   -0.82180  -0.79375  -0.75754  -0.74862  -0.74012
 Alpha  occ. eigenvalues --   -0.73820  -0.73462  -0.72700  -0.70864  -0.69133
 Alpha  occ. eigenvalues --   -0.67710  -0.67017  -0.66094  -0.65468  -0.64877
 Alpha  occ. eigenvalues --   -0.64063  -0.62955  -0.62947  -0.62454  -0.62061
 Alpha  occ. eigenvalues --   -0.60062  -0.59996  -0.59951  -0.59217  -0.58824
 Alpha  occ. eigenvalues --   -0.58712  -0.58322  -0.56772  -0.56329  -0.56315
 Alpha  occ. eigenvalues --   -0.56301  -0.55140  -0.54860  -0.54646  -0.54178
 Alpha  occ. eigenvalues --   -0.53953  -0.53724  -0.53211  -0.52815  -0.52704
 Alpha  occ. eigenvalues --   -0.52422  -0.51650  -0.51618  -0.50598  -0.50497
 Alpha  occ. eigenvalues --   -0.50025  -0.49898  -0.49334  -0.49273  -0.49042
 Alpha  occ. eigenvalues --   -0.48525  -0.48384  -0.47928  -0.47791  -0.47678
 Alpha  occ. eigenvalues --   -0.46786  -0.45576  -0.44895  -0.44596  -0.43175
 Alpha  occ. eigenvalues --   -0.40955  -0.39767  -0.39557  -0.37547  -0.37485
 Alpha  occ. eigenvalues --   -0.37002  -0.36847  -0.36315  -0.35789  -0.34609
 Alpha  occ. eigenvalues --   -0.33981  -0.33574  -0.33311  -0.33196  -0.32926
 Alpha  occ. eigenvalues --   -0.32804  -0.32642  -0.32488  -0.32021  -0.30769
 Alpha  occ. eigenvalues --   -0.30166  -0.28595  -0.25732  -0.25515
 Alpha virt. eigenvalues --    0.02321   0.05231   0.07507   0.08158   0.08614
 Alpha virt. eigenvalues --    0.09242   0.09472   0.11208   0.11584   0.12033
 Alpha virt. eigenvalues --    0.12709   0.14066   0.14666   0.14757   0.15600

 Mulliken charges:
               1
     1  N   -0.311063
     2  C    0.180866
     3  C    0.036496
     4  N   -0.257514
     5  C    0.131994
     6  H    0.025633
     7  N   -0.292750
     8  C    0.131405
     9  H    0.010063
    10  N   -0.291444
    11  C    0.237624
    12  C    0.122267
    13  N   -0.050311
    14  H    0.110853
    15  H    0.091986
    16  H    0.025483
    17  H    0.034138
    18  H    0.024635
    19  N   -0.312103
    20  C    0.248999
    21  C    0.181084
    22  N   -0.124694
    23  H    0.114058
    24  H    0.117413
    25  N   -0.307179
    26  C    0.245986
    27  N   -0.137288
    28  H    0.114384
    29  C    0.170593
    30  O   -0.321516
    31  C   -0.000534
    32  N   -0.223530
    33  C    0.131724
    34  H    0.029502
    35  H    0.030775
    36  H    0.028419
    37  H    0.024831
    38  H    0.063481
    39  H    0.059755
    40  H    0.073478
    41  H    0.031997
    42  C   -0.109653
    43  O   -0.276947
    44  C    0.133990
    45  H    0.137183
    46  N   -0.114962
    47  O   -0.350746
    48  C    0.358136
    49  H    0.051248
    50  C    0.181621
    51  C    0.042319
    52  N   -0.289203
    53  H    0.031672
    54  H    0.043395
    55  H    0.020351
    56  H    0.130829
    57  H    0.110340
    58  N   -0.047945
    59  C    0.093817
    60  C    0.241471
    61  N   -0.267878
    62  H    0.041858
    63  C    0.161294
    64  N   -0.298349
    65  H    0.029318
    66  C    0.132042
    67  N   -0.270241
    68  C    0.017688
    69  C    0.180346
    70  N   -0.312988
 Sum of Mulliken charges =  -0.00000

 Dipole moment (field-independent basis, Debye):
    X=              8.5652    Y=              5.9583    Z=              1.2804  Tot=             10.5121
 Quadrupole moment (field-independent basis, Debye-Ang):
   XX=           -147.2961   YY=           -219.5076   ZZ=           -249.5862
   XY=              1.6349   XZ=             10.5370   YZ=             -3.4361

 Normal termination of Gaussian 16 at Wed Jan 24 01:58:34 2018.
