 Gaussian 16, Revision A.03,
 Gaussian 16:  EM64L-G16RevA.03 25-Dec-2016

 ---------------------------------------
 #p wb97xd/cc-pvdz sp scf=(maxcycles=20)
 ---------------------------------------

 ------------------
 Base pair stacking
 ------------------
 Symbolic Z-matrix:
 Charge =  0 Multiplicity = 1

                         Standard orientation:
 ---------------------------------------------------------------------
 Center     Atomic      Atomic             Coordinates (Angstroms)
 Number     Number       Type             X           Y           Z
 ---------------------------------------------------------------------
      1          7           0       -6.187381   -1.743052    0.683572
      2          6           0       -7.582110   -1.299825    0.874017
      3          6           0       -3.991399   -1.861151    0.716315
      4          7           0       -4.431016   -2.993730    0.046444
      5          6           0       -5.736416   -2.877252    0.053526
      6          1           0       -6.425448   -3.596289   -0.390515
      7          7           0       -2.615826   -0.227136    1.716678
      8          6           0       -3.743148    0.417428    2.034878
      9          1           0       -3.607144    1.352071    2.577293
     10          7           0       -5.007311    0.082386    1.784803
     11          6           0       -5.062592   -1.080694    1.115028
     12          6           0       -2.705059   -1.394626    1.042820
     13          7           0       -1.580863   -2.039530    0.724298
     14          1           0       -1.599438   -2.906937    0.225823
     15          1           0       -0.682263   -1.677820    0.972933
     16          1           0       -8.083764   -1.988829    1.397264
     17          1           0       -7.592142   -0.432655    1.371044
     18          1           0       -8.019476   -1.176577   -0.016777
     19          7           0       -3.193732    2.937857   -1.499080
     20          6           0       -1.856475    2.628385   -1.435631
     21          6           0       -3.767704    4.285899   -1.314592
     22          7           0        1.440865    3.616450   -0.974092
     23          1           0        2.344897    3.189903   -0.969063
     24          1           0        1.403164    4.601816   -0.805729
     25          7           0       -0.850256    3.496812   -1.196015
     26          6           0        0.328537    2.900101   -1.196516
     27          7           0        0.510190    1.555905   -1.414770
     28          1           0        1.448179    1.185987   -1.396902
     29          6           0       -0.510561    0.643666   -1.663290
     30          8           0       -0.239000   -0.549283   -1.847299
     31          6           0       -1.782819    1.269943   -1.665837
     32          7           0       -3.048372    0.737286   -1.869714
     33          6           0       -3.851328    1.760924   -1.761844
     34          1           0       -4.935891    1.713006   -1.865375
     35          1           0       -4.399187    4.277973   -0.540017
     36          1           0       -3.031705    4.937690   -1.136436
     37          1           0       -4.258607    4.557039   -2.141815
     38          1           0        6.282560   -0.137221   -0.542198
     39          1           0        6.382751   -0.111916   -2.301162
     40          1           0        5.284837    0.986894   -1.465382
     41          1           0        4.197447   -4.340973   -1.603953
     42          6           0        3.956758   -3.277816   -1.602365
     43          8           0        1.613502   -3.620065   -1.740755
     44          6           0        2.586994   -2.869926   -1.674515
     45          1           0        1.438410   -1.176578   -1.715582
     46          7           0        2.393131   -1.503321   -1.665906
     47          8           0        3.088871    0.657267   -1.595199
     48          6           0        3.359102   -0.530854   -1.596891
     49          1           0        5.977933   -2.610674   -1.477645
     50          6           0        4.921226   -2.352754   -1.534118
     51          6           0        5.721545   -0.000679   -1.454706
     52          7           0        4.655134   -1.003109   -1.529870
     53          1           0        4.182423    3.045646    4.115650
     54          1           0        2.944660    3.397675    3.112590
     55          1           0        4.484689    3.581668    2.604115
     56          1           0        1.938423   -3.095383    0.605985
     57          1           0        3.567184   -2.816905    1.029884
     58          7           0        2.630781   -2.470059    0.966206
     59          6           0        2.320186   -1.228628    1.345090
     60          6           0        2.782423    0.940304    2.207547
     61          7           0        1.516519    1.379110    2.110792
     62          1           0       -0.319409    0.700151    1.503349
     63          6           0        0.728885    0.426678    1.615402
     64          7           0        1.038061   -0.817311    1.235321
     65          1           0        5.941677    1.065769    2.882487
     66          6           0        4.937179    0.771061    2.577404
     67          7           0        4.619743   -0.405906    2.096092
     68          6           0        3.256321   -0.312027    1.857385
     69          6           0        3.871127    3.026212    3.165542
     70          7           0        3.873793    1.635336    2.672135
 ---------------------------------------------------------------------

 SCF Done:  E(RwB97XD) =  -2048.74149091     A.U. after   15 cycles

 The electronic state is 1-A.
 Alpha  occ. eigenvalues --  -19.26185 -19.22851 -19.20826 -14.52826 -14.51869
 Alpha  occ. eigenvalues --  -14.48895 -14.48326 -14.48046 -14.47181 -14.46982
 Alpha  occ. eigenvalues --  -14.46958 -14.45000 -14.43556 -14.43499 -14.42237
 Alpha  occ. eigenvalues --  -14.41623 -14.40951 -14.40916 -14.40453 -14.39732
 Alpha  occ. eigenvalues --  -10.45815 -10.41469 -10.40881 -10.39066 -10.38425
 Alpha  occ. eigenvalues --  -10.38316 -10.37493 -10.36506 -10.35263 -10.35011
 Alpha  occ. eigenvalues --  -10.34891 -10.34499 -10.33603 -10.33454 -10.33400
 Alpha  occ. eigenvalues --  -10.32867 -10.32651 -10.32007 -10.31589 -10.30991
 Alpha  occ. eigenvalues --  -10.30686 -10.28259 -10.28004  -1.19770  -1.14586
 Alpha  occ. eigenvalues --   -1.13891  -1.13409  -1.10874  -1.10731  -1.09711
 Alpha  occ. eigenvalues --   -1.08789  -1.08488  -1.04505  -1.04081  -1.02883
 Alpha  occ. eigenvalues --   -1.00381  -1.00020  -0.99905  -0.98737  -0.96716
 Alpha  occ. eigenvalues --   -0.96514  -0.96033  -0.92154  -0.91551  -0.86990
 Alpha  occ. eigenvalues --   -0.85348  -0.84257  -0.83852  -0.83506  -0.82626
 Alpha  occ. eigenvalues --   -0.81898  -0.79333  -0.76351  -0.74799  -0.74091
 Alpha  occ. eigenvalues --   -0.73909  -0.73742  -0.72423  -0.70585  -0.69747
 Alpha  occ. eigenvalues --   -0.67613  -0.66921  -0.66086  -0.65816  -0.64813
 Alpha  occ. eigenvalues --   -0.64010  -0.63591  -0.62888  -0.62222  -0.61962
 Alpha  occ. eigenvalues --   -0.60261  -0.59936  -0.59844  -0.59791  -0.59061
 Alpha  occ. eigenvalues --   -0.58818  -0.58634  -0.56726  -0.56279  -0.56117
 Alpha  occ. eigenvalues --   -0.56033  -0.54977  -0.54817  -0.54741  -0.54478
 Alpha  occ. eigenvalues --   -0.53896  -0.53695  -0.53177  -0.53082  -0.52960
 Alpha  occ. eigenvalues --   -0.52687  -0.52164  -0.51386  -0.50446  -0.50316
 Alpha  occ. eigenvalues --   -0.49846  -0.49798  -0.49282  -0.49256  -0.49154
 Alpha  occ. eigenvalues --   -0.48518  -0.48405  -0.48079  -0.47790  -0.47647
 Alpha  occ. eigenvalues --   -0.46519  -0.45746  -0.44568  -0.44402  -0.44002
 Alpha  occ. eigenvalues --   -0.40642  -0.40097  -0.39740  -0.37462  -0.37435
 Alpha  occ. eigenvalues --   -0.37211  -0.36848  -0.36700  -0.36122  -0.34433
 Alpha  occ. eigenvalues --   -0.34121  -0.33982  -0.33573  -0.33099  -0.32996
 Alpha  occ. eigenvalues --   -0.32722  -0.32631  -0.32482  -0.31991  -0.30462
 Alpha  occ. eigenvalues --   -0.29966  -0.29250  -0.25698  -0.25132
 Alpha virt. eigenvalues --    0.02264   0.04728   0.07243   0.08478   0.08638
 Alpha virt. eigenvalues --    0.09019   0.09592   0.11144   0.11535   0.12075
 Alpha virt. eigenvalues --    0.12852   0.14355   0.14773   0.14959   0.15310

 Mulliken charges:
               1
     1  N   -0.312134
     2  C    0.180860
     3  C    0.048697
     4  N   -0.257770
     5  C    0.133105
     6  H    0.024614
     7  N   -0.296020
     8  C    0.134834
     9  H    0.008829
    10  N   -0.293090
    11  C    0.241522
    12  C    0.115020
    13  N   -0.049170
    14  H    0.113198
    15  H    0.090523
    16  H    0.024742
    17  H    0.032839
    18  H    0.024113
    19  N   -0.312235
    20  C    0.251091
    21  C    0.180693
    22  N   -0.121342
    23  H    0.113934
    24  H    0.117204
    25  N   -0.310096
    26  C    0.246026
    27  N   -0.146048
    28  H    0.117163
    29  C    0.184567
    30  O   -0.322398
    31  C   -0.006002
    32  N   -0.225870
    33  C    0.132722
    34  H    0.025910
    35  H    0.030469
    36  H    0.028589
    37  H    0.024579
    38  H    0.063999
    39  H    0.058831
    40  H    0.072599
    41  H    0.030500
    42  C   -0.111919
    43  O   -0.268963
    44  C    0.129368
    45  H    0.135692
    46  N   -0.105352
    47  O   -0.344838
    48  C    0.343596
    49  H    0.050925
    50  C    0.172891
    51  C    0.040718
    52  N   -0.281589
    53  H    0.033153
    54  H    0.043104
    55  H    0.024351
    56  H    0.128932
    57  H    0.115031
    58  N   -0.057139
    59  C    0.080379
    60  C    0.246473
    61  N   -0.270724
    62  H    0.038466
    63  C    0.167745
    64  N   -0.303528
    65  H    0.033331
    66  C    0.136496
    67  N   -0.268232
    68  C    0.024652
    69  C    0.179480
    70  N   -0.312096
 Sum of Mulliken charges =  -0.00000

 Dipole moment (field-independent basis, Debye):
    X=              8.5622    Y=              6.2907    Z=              1.2617  Tot=             10.6994
 Quadrupole moment (field-independent basis, Debye-Ang):
   XX=           -151.8684   YY=           -218.8686   ZZ=           -250.4492
   XY=              0.0090   XZ=              4.6568   YZ=             -1.9836

 Normal termination of Gaussian 16 at Wed Jan 24 00:24:34 2018.
