 Gaussian 16, Revision A.03,
 Gaussian 16:  EM64L-G16RevA.03 25-Dec-2016

 ---------------------------------------
 #p wb97xd/cc-pvdz sp scf=(maxcycles=20)
 ---------------------------------------

 ------------------
 Base pair stacking
 ------------------
 Symbolic Z-matrix:
 Charge =  0 Multiplicity = 1

                         Standard orientation:
 ---------------------------------------------------------------------
 Center     Atomic      Atomic             Coordinates (Angstroms)
 Number     Number       Type             X           Y           Z
 ---------------------------------------------------------------------
      1          7           0       -4.910347   -2.212661    1.481472
      2          6           0       -6.286763   -1.881739    1.898552
      3          6           0       -2.731737   -2.169499    1.182958
      4          7           0       -3.190745   -3.303331    0.528397
      5          6           0       -4.484908   -3.283958    0.734438
      6          1           0       -5.183448   -4.033305    0.360994
      7          7           0       -1.333234   -0.480304    2.051166
      8          6           0       -2.440095    0.065811    2.565170
      9          1           0       -2.286531    0.985164    3.128619
     10          7           0       -3.702240   -0.351263    2.488026
     11          6           0       -3.780156   -1.487113    1.775144
     12          6           0       -1.444966   -1.622885    1.339061
     13          7           0       -0.341215   -2.169545    0.825161
     14          1           0       -0.376824   -3.015013    0.291182
     15          1           0        0.558392   -1.752849    0.956332
     16          1           0       -6.656290   -2.626579    2.454295
     17          1           0       -6.279568   -1.038560    2.435330
     18          1           0       -6.861019   -1.755083    1.089737
     19          7           0       -4.570510    2.743281   -0.837678
     20          6           0       -3.221340    2.531096   -0.988651
     21          6           0       -5.198923    4.036659   -0.501575
     22          7           0        0.034257    3.740428   -0.969945
     23          1           0        0.955153    3.381952   -1.120525
     24          1           0       -0.043442    4.712669   -0.747645
     25          7           0       -2.250884    3.461016   -0.856369
     26          6           0       -1.048439    2.953505   -1.061775
     27          7           0       -0.812298    1.636362   -1.372997
     28          1           0        0.140238    1.336300   -1.513019
     29          6           0       -1.795506    0.662069   -1.514162
     30          8           0       -1.475648   -0.499118   -1.797137
     31          6           0       -3.092576    1.192260   -1.296448
     32          7           0       -4.335867    0.576314   -1.337878
     33          6           0       -5.179997    1.532632   -1.060175
     34          1           0       -6.262070    1.408994   -1.004466
     35          1           0       -5.704105    3.950692    0.356455
     36          1           0       -4.489750    4.733257   -0.401118
     37          1           0       -5.826268    4.304147   -1.232115
     38          1           0        5.125878    0.340141   -1.451640
     39          1           0        4.957102    0.444118   -3.202459
     40          1           0        3.927076    1.424032   -2.158333
     41          1           0        3.190339   -3.959567   -2.407048
     42          6           0        2.882034   -2.918032   -2.315474
     43          8           0        0.573016   -3.426507   -2.123079
     44          6           0        1.492909   -2.609822   -2.163253
     45          1           0        0.240585   -1.005658   -1.947260
     46          7           0        1.211549   -1.262739   -2.056125
     47          8           0        1.763769    0.938673   -1.978611
     48          6           0        2.109562   -0.225195   -2.081075
     49          1           0        4.849604   -2.109055   -2.457096
     50          6           0        3.781624   -1.927803   -2.343379
     51          6           0        4.425492    0.471788   -2.262939
     52          7           0        3.429497   -0.602781   -2.230738
     53          1           0        5.515023    3.185552    3.582538
     54          1           0        4.119109    3.485624    2.792935
     55          1           0        5.548770    3.803317    2.072354
     56          1           0        3.182442   -2.956951    0.133730
     57          1           0        4.834221   -2.576372    0.325735
     58          7           0        3.877861   -2.297329    0.419100
     59          6           0        3.545718   -1.098624    0.902803
     60          6           0        3.986780    1.061722    1.797273
     61          7           0        2.694298    1.409419    1.911400
     62          1           0        0.837257    0.621939    1.548249
     63          6           0        1.906370    0.422308    1.489869
     64          7           0        2.237105   -0.779013    1.005084
     65          1           0        7.196190    1.392666    2.003024
     66          6           0        6.179126    1.037215    1.835183
     67          7           0        5.872091   -0.139487    1.346525
     68          6           0        4.485046   -0.136941    1.317225
     69          6           0        5.065694    3.181753    2.689176
     70          7           0        5.086846    1.816033    2.130278
 ---------------------------------------------------------------------

 SCF Done:  E(RwB97XD) =  -2048.74121984     A.U. after   15 cycles

 The electronic state is 1-A.
 Alpha  occ. eigenvalues --  -19.25918 -19.22277 -19.20735 -14.52612 -14.52355
 Alpha  occ. eigenvalues --  -14.49052 -14.48278 -14.47828 -14.47776 -14.47083
 Alpha  occ. eigenvalues --  -14.46899 -14.45425 -14.44413 -14.44262 -14.42230
 Alpha  occ. eigenvalues --  -14.41702 -14.41197 -14.40330 -14.40267 -14.39767
 Alpha  occ. eigenvalues --  -10.45560 -10.41462 -10.40366 -10.40029 -10.38388
 Alpha  occ. eigenvalues --  -10.38237 -10.37961 -10.37164 -10.35764 -10.35064
 Alpha  occ. eigenvalues --  -10.34818 -10.34592 -10.33727 -10.33625 -10.33102
 Alpha  occ. eigenvalues --  -10.32693 -10.32521 -10.32477 -10.31156 -10.31153
 Alpha  occ. eigenvalues --  -10.30173 -10.28349 -10.27692  -1.19483  -1.15129
 Alpha  occ. eigenvalues --   -1.13387  -1.13270  -1.10818  -1.10376  -1.09661
 Alpha  occ. eigenvalues --   -1.09232  -1.08755  -1.04926  -1.04401  -1.02544
 Alpha  occ. eigenvalues --   -1.00949  -0.99963  -0.99786  -0.98757  -0.96936
 Alpha  occ. eigenvalues --   -0.96848  -0.96028  -0.92089  -0.91343  -0.87578
 Alpha  occ. eigenvalues --   -0.85802  -0.84366  -0.83643  -0.83095  -0.82740
 Alpha  occ. eigenvalues --   -0.81508  -0.79106  -0.77068  -0.74859  -0.74833
 Alpha  occ. eigenvalues --   -0.73856  -0.73464  -0.72181  -0.70485  -0.70295
 Alpha  occ. eigenvalues --   -0.67613  -0.66903  -0.66666  -0.65574  -0.64661
 Alpha  occ. eigenvalues --   -0.64286  -0.63977  -0.62857  -0.62008  -0.61981
 Alpha  occ. eigenvalues --   -0.60688  -0.60270  -0.60106  -0.59662  -0.59282
 Alpha  occ. eigenvalues --   -0.59165  -0.58589  -0.56844  -0.56114  -0.55927
 Alpha  occ. eigenvalues --   -0.55477  -0.55214  -0.54860  -0.54565  -0.54156
 Alpha  occ. eigenvalues --   -0.53856  -0.53729  -0.53555  -0.53305  -0.53182
 Alpha  occ. eigenvalues --   -0.52766  -0.52479  -0.51017  -0.50400  -0.50034
 Alpha  occ. eigenvalues --   -0.49846  -0.49631  -0.49441  -0.49261  -0.49056
 Alpha  occ. eigenvalues --   -0.48666  -0.48505  -0.48179  -0.47955  -0.47473
 Alpha  occ. eigenvalues --   -0.46228  -0.45854  -0.45629  -0.44213  -0.43478
 Alpha  occ. eigenvalues --   -0.40662  -0.40458  -0.39510  -0.37627  -0.37546
 Alpha  occ. eigenvalues --   -0.37512  -0.37500  -0.36357  -0.35975  -0.34791
 Alpha  occ. eigenvalues --   -0.34355  -0.34161  -0.33465  -0.32908  -0.32774
 Alpha  occ. eigenvalues --   -0.32734  -0.32562  -0.32504  -0.32065  -0.30153
 Alpha  occ. eigenvalues --   -0.29809  -0.29682  -0.25729  -0.25075
 Alpha virt. eigenvalues --    0.02237   0.04400   0.06774   0.08495   0.08846
 Alpha virt. eigenvalues --    0.09027   0.09570   0.10531   0.11346   0.11688
 Alpha virt. eigenvalues --    0.13434   0.14289   0.14493   0.15195   0.15243

 Mulliken charges:
               1
     1  N   -0.312047
     2  C    0.182107
     3  C    0.052922
     4  N   -0.254624
     5  C    0.142465
     6  H    0.024789
     7  N   -0.300917
     8  C    0.132669
     9  H    0.008547
    10  N   -0.288976
    11  C    0.255069
    12  C    0.098575
    13  N   -0.063675
    14  H    0.116051
    15  H    0.084358
    16  H    0.022083
    17  H    0.030719
    18  H    0.026177
    19  N   -0.311130
    20  C    0.253553
    21  C    0.180777
    22  N   -0.123568
    23  H    0.117146
    24  H    0.118447
    25  N   -0.312092
    26  C    0.249799
    27  N   -0.151270
    28  H    0.120333
    29  C    0.199160
    30  O   -0.320607
    31  C   -0.015269
    32  N   -0.227790
    33  C    0.128086
    34  H    0.022238
    35  H    0.028790
    36  H    0.029748
    37  H    0.024953
    38  H    0.064660
    39  H    0.059822
    40  H    0.074353
    41  H    0.028138
    42  C   -0.140264
    43  O   -0.266777
    44  C    0.171174
    45  H    0.131856
    46  N   -0.119923
    47  O   -0.346724
    48  C    0.345232
    49  H    0.044534
    50  C    0.173697
    51  C    0.036554
    52  N   -0.275506
    53  H    0.033911
    54  H    0.042563
    55  H    0.028443
    56  H    0.122296
    57  H    0.112728
    58  N   -0.054843
    59  C    0.098049
    60  C    0.253085
    61  N   -0.273807
    62  H    0.036442
    63  C    0.176042
    64  N   -0.317879
    65  H    0.038276
    66  C    0.137885
    67  N   -0.268274
    68  C    0.018042
    69  C    0.180387
    70  N   -0.311772
 Sum of Mulliken charges =  -0.00000

 Dipole moment (field-independent basis, Debye):
    X=              8.2424    Y=              7.0645    Z=              0.4472  Tot=             10.8648
 Quadrupole moment (field-independent basis, Debye-Ang):
   XX=           -159.8595   YY=           -218.0445   ZZ=           -249.6229
   XY=             -1.5568   XZ=            -10.4430   YZ=             -0.8126

 Normal termination of Gaussian 16 at Wed Jan 24 02:09:40 2018.
