 Gaussian 16, Revision A.03,
 Gaussian 16:  EM64L-G16RevA.03 25-Dec-2016

 ---------------------------------------
 #p wb97xd/cc-pvdz sp scf=(maxcycles=20)
 ---------------------------------------

 ------------------
 Base pair stacking
 ------------------
 Symbolic Z-matrix:
 Charge =  0 Multiplicity = 1

                         Standard orientation:
 ---------------------------------------------------------------------
 Center     Atomic      Atomic             Coordinates (Angstroms)
 Number     Number       Type             X           Y           Z
 ---------------------------------------------------------------------
      1          7           0       -5.854720   -1.749768    0.998687
      2          6           0       -7.248119   -1.274881    1.103151
      3          6           0       -3.658492   -1.860994    1.038219
      4          7           0       -4.102839   -3.108076    0.623407
      5          6           0       -5.408189   -2.991157    0.616194
      6          1           0       -6.100352   -3.786330    0.337701
      7          7           0       -2.275852   -0.055564    1.664058
      8          6           0       -3.400944    0.642612    1.849259
      9          1           0       -3.261122    1.669845    2.183193
     10          7           0       -4.666879    0.264177    1.684661
     11          6           0       -4.726884   -1.013174    1.273314
     12          6           0       -2.369840   -1.338026    1.249903
     13          7           0       -1.247885   -2.036592    1.064468
     14          1           0       -1.269964   -2.989031    0.758526
     15          1           0       -0.347517   -1.631953    1.224949
     16          1           0       -7.745291   -1.838674    1.762801
     17          1           0       -7.254648   -0.322950    1.407951
     18          1           0       -7.692561   -1.340079    0.209721
     19          7           0       -3.600921    2.700993   -1.442605
     20          6           0       -2.256254    2.424230   -1.384999
     21          6           0       -4.209741    4.027766   -1.219666
     22          7           0        1.013739    3.482535   -0.886106
     23          1           0        1.928447    3.079393   -0.891456
     24          1           0        0.950376    4.461171   -0.688686
     25          7           0       -1.273148    3.310715   -1.117225
     26          6           0       -0.079380    2.744763   -1.132461
     27          7           0        0.137213    1.412749   -1.390020
     28          1           0        1.084370    1.066693   -1.380763
     29          6           0       -0.859273    0.482376   -1.668031
     30          8           0       -0.556752   -0.697212   -1.886648
     31          6           0       -2.147230    1.075561   -1.655200
     32          7           0       -3.398289    0.516868   -1.877957
     33          6           0       -4.227532    1.515877   -1.741793
     34          1           0       -5.310317    1.443211   -1.849427
     35          1           0       -4.842163    3.980610   -0.447254
     36          1           0       -3.491088    4.692672   -1.020416
     37          1           0       -4.706017    4.310665   -2.039721
     38          1           0        5.949737   -0.156689   -0.553547
     39          1           0        6.052314   -0.076587   -2.310730
     40          1           0        4.925003    0.968350   -1.445490
     41          1           0        3.975428   -4.379230   -1.744699
     42          6           0        3.707434   -3.323121   -1.712198
     43          8           0        1.374022   -3.721200   -1.866553
     44          6           0        2.327755   -2.948589   -1.775658
     45          1           0        1.136021   -1.284842   -1.769386
     46          7           0        2.098748   -1.588280   -1.727018
     47          8           0        2.738480    0.586421   -1.590540
     48          6           0        3.039225   -0.593796   -1.626785
     49          1           0        5.710541   -2.608277   -1.562677
     50          6           0        4.647642   -2.376019   -1.614138
     51          6           0        5.386977   -0.007559   -1.463010
     52          7           0        4.346868   -1.034378   -1.570537
     53          1           0        4.539521    3.638462    3.272498
     54          1           0        3.293716    3.774449    2.227717
     55          1           0        4.829593    3.846258    1.679989
     56          1           0        2.270880   -3.097992    1.142010
     57          1           0        3.902801   -2.738950    1.485563
     58          7           0        2.965745   -2.411985    1.358094
     59          6           0        2.657550   -1.118404    1.471474
     60          6           0        3.125525    1.182357    1.857761
     61          7           0        1.858694    1.592727    1.681297
     62          1           0        0.018351    0.803930    1.243604
     63          6           0        1.067630    0.558698    1.402163
     64          7           0        1.374400   -0.737633    1.288164
     65          1           0        6.289956    1.442450    2.466821
     66          6           0        5.283223    1.091658    2.237959
     67          7           0        4.962563   -0.159562    2.015862
     68          6           0        3.597253   -0.116066    1.773470
     69          6           0        4.220755    3.421178    2.349914
     70          7           0        4.220199    1.957878    2.158211
 ---------------------------------------------------------------------

 SCF Done:  E(RwB97XD) =  -2048.75012265     A.U. after   15 cycles

 The electronic state is 1-A.
 Alpha  occ. eigenvalues --  -19.25851 -19.22185 -19.20567 -14.52424 -14.52333
 Alpha  occ. eigenvalues --  -14.48675 -14.48414 -14.48049 -14.47807 -14.46860
 Alpha  occ. eigenvalues --  -14.46519 -14.45418 -14.44058 -14.44054 -14.42016
 Alpha  occ. eigenvalues --  -14.41945 -14.41019 -14.40754 -14.40668 -14.40000
 Alpha  occ. eigenvalues --  -10.45452 -10.41121 -10.40241 -10.39734 -10.38155
 Alpha  occ. eigenvalues --  -10.37908 -10.37841 -10.37001 -10.35504 -10.35153
 Alpha  occ. eigenvalues --  -10.34860 -10.34224 -10.33902 -10.33715 -10.33225
 Alpha  occ. eigenvalues --  -10.33005 -10.32843 -10.32490 -10.31187 -10.30812
 Alpha  occ. eigenvalues --  -10.30759 -10.28167 -10.27994  -1.19416  -1.15050
 Alpha  occ. eigenvalues --   -1.13169  -1.13129  -1.10976  -1.10496  -1.09302
 Alpha  occ. eigenvalues --   -1.09077  -1.08470  -1.04743  -1.04622  -1.02479
 Alpha  occ. eigenvalues --   -1.00873  -1.00164  -0.99626  -0.98472  -0.96739
 Alpha  occ. eigenvalues --   -0.96502  -0.96491  -0.92409  -0.91080  -0.87470
 Alpha  occ. eigenvalues --   -0.85819  -0.84003  -0.83626  -0.83465  -0.82403
 Alpha  occ. eigenvalues --   -0.82034  -0.78887  -0.76863  -0.74664  -0.74499
 Alpha  occ. eigenvalues --   -0.73566  -0.73338  -0.72619  -0.70773  -0.70254
 Alpha  occ. eigenvalues --   -0.67283  -0.66653  -0.66504  -0.66020  -0.64427
 Alpha  occ. eigenvalues --   -0.64114  -0.63701  -0.62625  -0.62444  -0.61644
 Alpha  occ. eigenvalues --   -0.60444  -0.60196  -0.60176  -0.59481  -0.59290
 Alpha  occ. eigenvalues --   -0.59180  -0.58252  -0.56586  -0.56311  -0.56079
 Alpha  occ. eigenvalues --   -0.55946  -0.55322  -0.55086  -0.54443  -0.54256
 Alpha  occ. eigenvalues --   -0.53757  -0.53596  -0.53338  -0.53135  -0.52896
 Alpha  occ. eigenvalues --   -0.52613  -0.52300  -0.51523  -0.50460  -0.50121
 Alpha  occ. eigenvalues --   -0.49987  -0.49647  -0.49424  -0.48836  -0.48804
 Alpha  occ. eigenvalues --   -0.48550  -0.48499  -0.48248  -0.47574  -0.47330
 Alpha  occ. eigenvalues --   -0.46671  -0.45654  -0.44860  -0.44591  -0.43868
 Alpha  occ. eigenvalues --   -0.40832  -0.40595  -0.39417  -0.37588  -0.37444
 Alpha  occ. eigenvalues --   -0.37212  -0.37095  -0.36865  -0.36008  -0.34650
 Alpha  occ. eigenvalues --   -0.34217  -0.33775  -0.33305  -0.33205  -0.33069
 Alpha  occ. eigenvalues --   -0.32616  -0.32368  -0.32149  -0.31806  -0.30627
 Alpha  occ. eigenvalues --   -0.30196  -0.29717  -0.25666  -0.25058
 Alpha virt. eigenvalues --    0.02949   0.04108   0.07300   0.08192   0.08445
 Alpha virt. eigenvalues --    0.09363   0.09860   0.10609   0.11333   0.11895
 Alpha virt. eigenvalues --    0.12614   0.14401   0.14545   0.14728   0.15176

 Mulliken charges:
               1
     1  N   -0.313197
     2  C    0.180983
     3  C    0.053714
     4  N   -0.259317
     5  C    0.135889
     6  H    0.025495
     7  N   -0.294038
     8  C    0.135862
     9  H    0.009052
    10  N   -0.291545
    11  C    0.249889
    12  C    0.111869
    13  N   -0.053928
    14  H    0.111723
    15  H    0.084523
    16  H    0.024614
    17  H    0.031570
    18  H    0.025601
    19  N   -0.309540
    20  C    0.248895
    21  C    0.180448
    22  N   -0.109436
    23  H    0.112319
    24  H    0.114715
    25  N   -0.308503
    26  C    0.234613
    27  N   -0.146586
    28  H    0.123883
    29  C    0.181514
    30  O   -0.322458
    31  C   -0.006392
    32  N   -0.226023
    33  C    0.133036
    34  H    0.021697
    35  H    0.030455
    36  H    0.028093
    37  H    0.023675
    38  H    0.062245
    39  H    0.058441
    40  H    0.070466
    41  H    0.028463
    42  C   -0.111510
    43  O   -0.266559
    44  C    0.157252
    45  H    0.133050
    46  N   -0.116219
    47  O   -0.341202
    48  C    0.335532
    49  H    0.047821
    50  C    0.165716
    51  C    0.037905
    52  N   -0.280387
    53  H    0.034983
    54  H    0.039915
    55  H    0.026628
    56  H    0.128498
    57  H    0.115730
    58  N   -0.056029
    59  C    0.076644
    60  C    0.251701
    61  N   -0.273852
    62  H    0.041133
    63  C    0.159708
    64  N   -0.301414
    65  H    0.036072
    66  C    0.137427
    67  N   -0.267034
    68  C    0.029045
    69  C    0.178632
    70  N   -0.311965
 Sum of Mulliken charges =  -0.00000

 Dipole moment (field-independent basis, Debye):
    X=              8.1956    Y=              6.2087    Z=              1.9543  Tot=             10.4659
 Quadrupole moment (field-independent basis, Debye-Ang):
   XX=           -153.5409   YY=           -218.7759   ZZ=           -253.6671
   XY=              0.3022   XZ=              0.5198   YZ=             -6.2307

 Normal termination of Gaussian 16 at Wed Jan 24 04:05:30 2018.
