 Gaussian 16, Revision A.03,
 Gaussian 16:  EM64L-G16RevA.03 25-Dec-2016

 ---------------------------------------
 #p wb97xd/cc-pvdz sp scf=(maxcycles=20)
 ---------------------------------------

 ------------------
 Base pair stacking
 ------------------
 Symbolic Z-matrix:
 Charge =  0 Multiplicity = 1

                         Standard orientation:
 ---------------------------------------------------------------------
 Center     Atomic      Atomic             Coordinates (Angstroms)
 Number     Number       Type             X           Y           Z
 ---------------------------------------------------------------------
      1          7           0        5.210640   -1.769594   -1.427182
      2          6           0        6.608037   -1.299312   -1.491266
      3          6           0        3.012703   -1.846232   -1.404413
      4          7           0        3.448235   -3.154730   -1.253161
      5          6           0        4.754977   -3.056182   -1.272929
      6          1           0        5.441706   -3.897830   -1.178184
      7          7           0        1.642490    0.061349   -1.620315
      8          6           0        2.773084    0.769284   -1.710698
      9          1           0        2.640596    1.843048   -1.836224
     10          7           0        4.036820    0.351944   -1.669498
     11          6           0        4.087640   -0.981223   -1.512926
     12          6           0        1.727277   -1.277768   -1.463265
     13          7           0        0.599821   -1.986165   -1.372845
     14          1           0        0.615042   -2.979812   -1.256007
     15          1           0       -0.298012   -1.548053   -1.418787
     16          1           0        7.071481   -1.731534   -2.264953
     17          1           0        6.621431   -0.306706   -1.608159
     18          1           0        7.082067   -1.539923   -0.644275
     19          7           0        4.298377    2.474839    1.154014
     20          6           0        2.946231    2.230423    1.154991
     21          6           0        4.930977    3.773246    0.846318
     22          7           0       -0.312576    3.347585    0.714629
     23          1           0       -1.236015    2.968898    0.770242
     24          1           0       -0.232470    4.313653    0.467656
     25          7           0        1.976137    3.128108    0.877268
     26          6           0        0.770293    2.594530    0.960030
     27          7           0        0.530643    1.282437    1.289421
     28          1           0       -0.424348    0.960886    1.328747
     29          6           0        1.513405    0.341073    1.579061
     30          8           0        1.190245   -0.818463    1.865004
     31          6           0        2.814100    0.899532    1.494220
     32          7           0        4.058261    0.320074    1.702025
     33          6           0        4.906175    1.289681    1.489597
     34          1           0        5.989960    1.194341    1.564377
     35          1           0        5.534924    3.672781    0.056416
     36          1           0        4.222113    4.446140    0.638986
     37          1           0        5.462057    4.082265    1.634529
     38          1           0       -5.343578   -0.174838    0.725411
     39          1           0       -5.383246   -0.007899    2.479039
     40          1           0       -4.261682    0.964888    1.526587
     41          1           0       -3.431736   -4.384894    2.054650
     42          6           0       -3.139609   -3.338834    1.961670
     43          8           0       -0.812538   -3.789116    2.057167
     44          6           0       -1.749910   -2.997406    1.960597
     45          1           0       -0.519280   -1.367179    1.833245
     46          7           0       -1.489947   -1.647355    1.837963
     47          8           0       -2.081316    0.534068    1.616919
     48          6           0       -2.409037   -0.634898    1.720788
     49          1           0       -5.128838   -2.580537    1.844486
     50          6           0       -4.059502   -2.373588    1.848973
     51          6           0       -4.746209    0.003185    1.607184
     52          7           0       -3.728101   -1.043790    1.729881
     53          1           0       -5.155790    4.072579   -2.233315
     54          1           0       -3.872048    3.991251   -1.229579
     55          1           0       -5.386318    3.973947   -0.620691
     56          1           0       -2.938412   -2.972931   -1.519408
     57          1           0       -4.574437   -2.536101   -1.726029
     58          7           0       -3.627666   -2.250350   -1.573764
     59          6           0       -3.299903   -0.962661   -1.448862
     60          6           0       -3.738710    1.374623   -1.369467
     61          7           0       -2.459162    1.729065   -1.165603
     62          1           0       -0.619494    0.850070   -0.956805
     63          6           0       -1.677992    0.651767   -1.119695
     64          7           0       -2.004367   -0.638759   -1.244571
     65          1           0       -6.917126    1.782714   -1.797638
     66          6           0       -5.909641    1.383099   -1.678327
     67          7           0       -5.604484    0.108972   -1.712204
     68          6           0       -4.230990    0.089612   -1.517650
     69          6           0       -4.809102    3.678557   -1.382109
     70          7           0       -4.828753    2.205769   -1.474338
 ---------------------------------------------------------------------

 SCF Done:  E(RwB97XD) =  -2048.75135244     A.U. after   15 cycles

 The electronic state is 1-A.
 Alpha  occ. eigenvalues --  -19.25359 -19.21606 -19.20357 -14.52861 -14.52053
 Alpha  occ. eigenvalues --  -14.48743 -14.48535 -14.48365 -14.47388 -14.46539
 Alpha  occ. eigenvalues --  -14.46076 -14.45824 -14.44704 -14.44672 -14.42551
 Alpha  occ. eigenvalues --  -14.41743 -14.41035 -14.40768 -14.40690 -14.40233
 Alpha  occ. eigenvalues --  -10.45016 -10.40906 -10.40428 -10.39727 -10.38388
 Alpha  occ. eigenvalues --  -10.37960 -10.37602 -10.37532 -10.36210 -10.35461
 Alpha  occ. eigenvalues --  -10.34458 -10.34263 -10.34084 -10.33744 -10.33168
 Alpha  occ. eigenvalues --  -10.33088 -10.33018 -10.32930 -10.30818 -10.30723
 Alpha  occ. eigenvalues --  -10.30654 -10.28292 -10.27833  -1.19049  -1.15590
 Alpha  occ. eigenvalues --   -1.12903  -1.12622  -1.10972  -1.10324  -1.09718
 Alpha  occ. eigenvalues --   -1.08942  -1.08224  -1.05256  -1.04974  -1.02040
 Alpha  occ. eigenvalues --   -1.01385  -1.00438  -0.99286  -0.98275  -0.97285
 Alpha  occ. eigenvalues --   -0.96663  -0.96350  -0.92669  -0.90726  -0.88019
 Alpha  occ. eigenvalues --   -0.86288  -0.83863  -0.83644  -0.83135  -0.82267
 Alpha  occ. eigenvalues --   -0.82069  -0.78529  -0.77438  -0.75286  -0.74342
 Alpha  occ. eigenvalues --   -0.73277  -0.72931  -0.72790  -0.70937  -0.70799
 Alpha  occ. eigenvalues --   -0.67269  -0.67000  -0.66206  -0.66132  -0.64691
 Alpha  occ. eigenvalues --   -0.64150  -0.63487  -0.62643  -0.62450  -0.61404
 Alpha  occ. eigenvalues --   -0.60920  -0.60683  -0.60549  -0.59713  -0.59266
 Alpha  occ. eigenvalues --   -0.59046  -0.57905  -0.56704  -0.56368  -0.55914
 Alpha  occ. eigenvalues --   -0.55748  -0.55664  -0.55465  -0.54503  -0.54124
 Alpha  occ. eigenvalues --   -0.53875  -0.53560  -0.53336  -0.53115  -0.52936
 Alpha  occ. eigenvalues --   -0.52679  -0.52005  -0.51562  -0.50517  -0.50244
 Alpha  occ. eigenvalues --   -0.49983  -0.49860  -0.49569  -0.49048  -0.48806
 Alpha  occ. eigenvalues --   -0.48542  -0.48149  -0.48024  -0.47390  -0.47052
 Alpha  occ. eigenvalues --   -0.46739  -0.45731  -0.45087  -0.44346  -0.43456
 Alpha  occ. eigenvalues --   -0.41217  -0.40926  -0.39067  -0.38023  -0.37943
 Alpha  occ. eigenvalues --   -0.37351  -0.37046  -0.36664  -0.35584  -0.35097
 Alpha  occ. eigenvalues --   -0.34804  -0.33705  -0.33366  -0.33170  -0.32791
 Alpha  occ. eigenvalues --   -0.32426  -0.32159  -0.31938  -0.31664  -0.30687
 Alpha  occ. eigenvalues --   -0.30365  -0.30130  -0.25727  -0.25128
 Alpha virt. eigenvalues --    0.02957   0.04080   0.06243   0.08126   0.09203
 Alpha virt. eigenvalues --    0.09399   0.09959   0.10102   0.11124   0.11988
 Alpha virt. eigenvalues --    0.12637   0.14215   0.14557   0.14816   0.15202

 Mulliken charges:
               1
     1  N   -0.312443
     2  C    0.182228
     3  C    0.055115
     4  N   -0.261617
     5  C    0.140698
     6  H    0.026391
     7  N   -0.293190
     8  C    0.132860
     9  H    0.012134
    10  N   -0.284166
    11  C    0.259626
    12  C    0.097417
    13  N   -0.058338
    14  H    0.110069
    15  H    0.081328
    16  H    0.023375
    17  H    0.029226
    18  H    0.028511
    19  N   -0.300920
    20  C    0.239034
    21  C    0.180943
    22  N   -0.106079
    23  H    0.112258
    24  H    0.113810
    25  N   -0.305422
    26  C    0.228376
    27  N   -0.138641
    28  H    0.114666
    29  C    0.189248
    30  O   -0.323480
    31  C   -0.016823
    32  N   -0.224406
    33  C    0.127805
    34  H    0.017914
    35  H    0.028906
    36  H    0.027980
    37  H    0.023029
    38  H    0.062902
    39  H    0.057672
    40  H    0.073688
    41  H    0.027448
    42  C   -0.114529
    43  O   -0.264044
    44  C    0.174541
    45  H    0.131268
    46  N   -0.124054
    47  O   -0.338471
    48  C    0.337179
    49  H    0.044249
    50  C    0.165082
    51  C    0.036081
    52  N   -0.279397
    53  H    0.035618
    54  H    0.037114
    55  H    0.030685
    56  H    0.120662
    57  H    0.116828
    58  N   -0.058170
    59  C    0.093537
    60  C    0.252161
    61  N   -0.276078
    62  H    0.038269
    63  C    0.171546
    64  N   -0.307496
    65  H    0.039346
    66  C    0.134708
    67  N   -0.258983
    68  C    0.010063
    69  C    0.181267
    70  N   -0.308110
 Sum of Mulliken charges =  -0.00000

 Dipole moment (field-independent basis, Debye):
    X=             -8.1657    Y=              6.3152    Z=             -2.3669  Tot=             10.5906
 Quadrupole moment (field-independent basis, Debye-Ang):
   XX=           -157.0043   YY=           -219.8068   ZZ=           -255.1273
   XY=              1.7120   XZ=             -8.1377   YZ=             10.1746

 Normal termination of Gaussian 16 at Tue Jan 23 16:30:56 2018.
