 Gaussian 16, Revision A.03,
 Gaussian 16:  EM64L-G16RevA.03 25-Dec-2016

 ---------------------------------------
 #p wb97xd/cc-pvdz sp scf=(maxcycles=20)
 ---------------------------------------

 ------------------
 Base pair stacking
 ------------------
 Symbolic Z-matrix:
 Charge =  0 Multiplicity = 1

                         Standard orientation:
 ---------------------------------------------------------------------
 Center     Atomic      Atomic             Coordinates (Angstroms)
 Number     Number       Type             X           Y           Z
 ---------------------------------------------------------------------
      1          7           0       -5.232841   -1.971296    1.384723
      2          6           0       -6.623860   -1.554119    1.647493
      3          6           0       -3.039318   -2.011686    1.229330
      4          7           0       -3.485225   -3.232981    0.745240
      5          6           0       -4.788895   -3.159762    0.858237
      6          1           0       -5.481597   -3.951015    0.570085
      7          7           0       -1.655248   -0.220938    1.893054
      8          6           0       -2.777887    0.420681    2.233015
      9          1           0       -2.636501    1.419731    2.643119
     10          7           0       -4.043008    0.015398    2.142887
     11          6           0       -4.105074   -1.223416    1.627217
     12          6           0       -1.751264   -1.465760    1.377010
     13          7           0       -0.631763   -2.107852    1.037040
     14          1           0       -0.655406   -3.030862    0.651411
     15          1           0        0.268256   -1.688408    1.156157
     16          1           0       -7.047015   -2.188600    2.294445
     17          1           0       -6.628795   -0.632473    2.034355
     18          1           0       -7.142287   -1.557624    0.792373
     19          7           0       -4.258739    2.682716   -1.120260
     20          6           0       -2.907465    2.441183   -1.181516
     21          6           0       -4.879906    3.991869   -0.835690
     22          7           0        0.365115    3.582706   -0.960382
     23          1           0        1.285997    3.203819   -1.047980
     24          1           0        0.293920    4.558330   -0.751079
     25          7           0       -1.928004    3.351893   -0.993545
     26          6           0       -0.725878    2.817658   -1.116387
     27          7           0       -0.498184    1.493121   -1.401458
     28          1           0        0.454806    1.172082   -1.476910
     29          6           0       -1.490724    0.538240   -1.598788
     30          8           0       -1.178018   -0.631862   -1.851416
     31          6           0       -2.787575    1.097229   -1.469977
     32          7           0       -4.038419    0.506902   -1.587469
     33          6           0       -4.878194    1.483037   -1.372618
     34          1           0       -5.963996    1.382415   -1.386463
     35          1           0       -5.441397    3.924197   -0.011706
     36          1           0       -4.164055    4.674455   -0.694678
     37          1           0       -5.452693    4.265711   -1.607531
     38          1           0        5.403584    0.073104   -1.083710
     39          1           0        5.350990    0.164714   -2.842538
     40          1           0        4.276543    1.175243   -1.875189
     41          1           0        3.442839   -4.193916   -2.129919
     42          6           0        3.151530   -3.145415   -2.066599
     43          8           0        0.824576   -3.604015   -2.020902
     44          6           0        1.762346   -2.807025   -2.007431
     45          1           0        0.533136   -1.175290   -1.885691
     46          7           0        1.503422   -1.453483   -1.929184
     47          8           0        2.096275    0.736594   -1.832850
     48          6           0        2.423073   -0.435089   -1.903647
     49          1           0        5.140940   -2.378825   -2.086154
     50          6           0        4.071946   -2.174384   -2.043537
     51          6           0        4.760275    0.211935   -1.939827
     52          7           0        3.741598   -0.841370   -1.964229
     53          1           0        5.175117    3.548855    3.241046
     54          1           0        3.840228    3.731728    2.320865
     55          1           0        5.320386    3.901599    1.654263
     56          1           0        2.906994   -3.053253    0.724435
     57          1           0        4.552626   -2.670289    0.959672
     58          7           0        3.599823   -2.365277    0.940814
     59          6           0        3.268936   -1.097200    1.193130
     60          6           0        3.708372    1.176551    1.739671
     61          7           0        2.420709    1.557734    1.707260
     62          1           0        0.570581    0.747883    1.358287
     63          6           0        1.635706    0.525367    1.405766
     64          7           0        1.965204   -0.745450    1.152702
     65          1           0        6.905818    1.489739    2.100759
     66          6           0        5.892542    1.126181    1.927447
     67          7           0        5.586637   -0.111537    1.623869
     68          6           0        4.204772   -0.093345    1.502020
     69          6           0        4.783280    3.400627    2.333030
     70          7           0        4.804340    1.959869    2.014013
 ---------------------------------------------------------------------

 SCF Done:  E(RwB97XD) =  -2048.74762418     A.U. after   15 cycles

 The electronic state is 1-A.
 Alpha  occ. eigenvalues --  -19.25760 -19.22115 -19.20593 -14.52464 -14.52416
 Alpha  occ. eigenvalues --  -14.48843 -14.48337 -14.48066 -14.47719 -14.46912
 Alpha  occ. eigenvalues --  -14.46662 -14.45537 -14.44365 -14.44305 -14.42041
 Alpha  occ. eigenvalues --  -14.41945 -14.40976 -14.40659 -14.40475 -14.39931
 Alpha  occ. eigenvalues --  -10.45390 -10.41262 -10.40184 -10.40040 -10.38230
 Alpha  occ. eigenvalues --  -10.38058 -10.37901 -10.37222 -10.35784 -10.35026
 Alpha  occ. eigenvalues --  -10.34837 -10.34388 -10.33873 -10.33417 -10.33399
 Alpha  occ. eigenvalues --  -10.32761 -10.32725 -10.32673 -10.31105 -10.30976
 Alpha  occ. eigenvalues --  -10.30446 -10.28148 -10.27932  -1.19338  -1.15216
 Alpha  occ. eigenvalues --   -1.13206  -1.13093  -1.10654  -1.10622  -1.09470
 Alpha  occ. eigenvalues --   -1.09195  -1.08567  -1.04908  -1.04595  -1.02405
 Alpha  occ. eigenvalues --   -1.01030  -1.00006  -0.99743  -0.98569  -0.96926
 Alpha  occ. eigenvalues --   -0.96646  -0.96306  -0.92284  -0.91095  -0.87642
 Alpha  occ. eigenvalues --   -0.85907  -0.84160  -0.83451  -0.83349  -0.82549
 Alpha  occ. eigenvalues --   -0.81767  -0.78894  -0.77088  -0.74870  -0.74656
 Alpha  occ. eigenvalues --   -0.73656  -0.73292  -0.72415  -0.70589  -0.70442
 Alpha  occ. eigenvalues --   -0.67403  -0.66901  -0.66481  -0.65810  -0.64471
 Alpha  occ. eigenvalues --   -0.64314  -0.63786  -0.62679  -0.62240  -0.61784
 Alpha  occ. eigenvalues --   -0.60626  -0.60321  -0.60190  -0.59508  -0.59319
 Alpha  occ. eigenvalues --   -0.59234  -0.58367  -0.56671  -0.56145  -0.55939
 Alpha  occ. eigenvalues --   -0.55749  -0.55332  -0.55017  -0.54421  -0.54086
 Alpha  occ. eigenvalues --   -0.53738  -0.53661  -0.53536  -0.53227  -0.53002
 Alpha  occ. eigenvalues --   -0.52821  -0.52296  -0.51267  -0.50264  -0.50169
 Alpha  occ. eigenvalues --   -0.49971  -0.49632  -0.49426  -0.49164  -0.48883
 Alpha  occ. eigenvalues --   -0.48529  -0.48402  -0.48352  -0.47723  -0.47335
 Alpha  occ. eigenvalues --   -0.46453  -0.45776  -0.45392  -0.44325  -0.43572
 Alpha  occ. eigenvalues --   -0.40759  -0.40641  -0.39359  -0.37635  -0.37617
 Alpha  occ. eigenvalues --   -0.37321  -0.37306  -0.36602  -0.35912  -0.34786
 Alpha  occ. eigenvalues --   -0.34381  -0.33972  -0.33285  -0.33002  -0.32856
 Alpha  occ. eigenvalues --   -0.32717  -0.32526  -0.32351  -0.31914  -0.30391
 Alpha  occ. eigenvalues --   -0.30025  -0.29756  -0.25551  -0.25238
 Alpha virt. eigenvalues --    0.02634   0.04224   0.06776   0.08408   0.08778
 Alpha virt. eigenvalues --    0.09241   0.09754   0.10427   0.11471   0.11761
 Alpha virt. eigenvalues --    0.13021   0.14447   0.14679   0.14849   0.14975

 Mulliken charges:
               1
     1  N   -0.312411
     2  C    0.181704
     3  C    0.054233
     4  N   -0.257872
     5  C    0.140391
     6  H    0.025282
     7  N   -0.298865
     8  C    0.133881
     9  H    0.009366
    10  N   -0.289372
    11  C    0.255749
    12  C    0.101790
    13  N   -0.057538
    14  H    0.114365
    15  H    0.082528
    16  H    0.023140
    17  H    0.030698
    18  H    0.026208
    19  N   -0.310248
    20  C    0.253363
    21  C    0.180757
    22  N   -0.119560
    23  H    0.115455
    24  H    0.117005
    25  N   -0.311339
    26  C    0.245241
    27  N   -0.148748
    28  H    0.119988
    29  C    0.195171
    30  O   -0.322069
    31  C   -0.016430
    32  N   -0.226127
    33  C    0.129975
    34  H    0.020884
    35  H    0.029387
    36  H    0.029066
    37  H    0.024179
    38  H    0.062907
    39  H    0.059215
    40  H    0.072825
    41  H    0.026826
    42  C   -0.123611
    43  O   -0.266026
    44  C    0.165745
    45  H    0.131118
    46  N   -0.117540
    47  O   -0.343056
    48  C    0.337524
    49  H    0.044943
    50  C    0.168663
    51  C    0.036553
    52  N   -0.276262
    53  H    0.034431
    54  H    0.041127
    55  H    0.028341
    56  H    0.124454
    57  H    0.113781
    58  N   -0.052480
    59  C    0.089464
    60  C    0.253772
    61  N   -0.275363
    62  H    0.035990
    63  C    0.172278
    64  N   -0.311250
    65  H    0.038102
    66  C    0.137246
    67  N   -0.266989
    68  C    0.018966
    69  C    0.180334
    70  N   -0.311256
 Sum of Mulliken charges =  -0.00000

 Dipole moment (field-independent basis, Debye):
    X=              8.2575    Y=              6.6261    Z=              1.1798  Tot=             10.6529
 Quadrupole moment (field-independent basis, Debye-Ang):
   XX=           -157.4784   YY=           -218.0111   ZZ=           -252.5125
   XY=             -1.4104   XZ=             -7.0984   YZ=             -4.3049

 Normal termination of Gaussian 16 at Tue Jan 23 16:54:13 2018.
