 Gaussian 16, Revision A.03,
 Gaussian 16:  EM64L-G16RevA.03 25-Dec-2016

 ---------------------------------------
 #p wb97xd/cc-pvdz sp scf=(maxcycles=20)
 ---------------------------------------

 ------------------
 Base pair stacking
 ------------------
 Symbolic Z-matrix:
 Charge =  0 Multiplicity = 1

                         Standard orientation:
 ---------------------------------------------------------------------
 Center     Atomic      Atomic             Coordinates (Angstroms)
 Number     Number       Type             X           Y           Z
 ---------------------------------------------------------------------
      1          7           0       -6.380709   -1.554035    0.647806
      2          6           0       -7.758611   -1.040066    0.524381
      3          6           0       -4.201645   -1.698292    0.908929
      4          7           0       -4.657013   -2.995580    0.723434
      5          6           0       -5.951590   -2.856754    0.573547
      6          1           0       -6.647834   -3.678711    0.404504
      7          7           0       -2.808392    0.170377    1.269274
      8          6           0       -3.917368    0.914207    1.202507
      9          1           0       -3.766827    1.985681    1.327199
     10          7           0       -5.178477    0.534977    1.005753
     11          6           0       -5.252631   -0.798833    0.864829
     12          6           0       -2.916346   -1.168359    1.123603
     13          7           0       -1.810473   -1.912549    1.189944
     14          1           0       -1.843271   -2.907381    1.087677
     15          1           0       -0.911998   -1.501280    1.344029
     16          1           0       -8.331202   -1.442560    1.238752
     17          1           0       -7.754218   -0.045399    0.623040
     18          1           0       -8.128007   -1.282735   -0.372642
     19          7           0       -3.031072    2.554321   -1.606861
     20          6           0       -1.698683    2.268686   -1.430215
     21          6           0       -3.654827    3.877281   -1.403392
     22          7           0        1.511918    3.294132   -0.592187
     23          1           0        2.421935    2.886357   -0.522717
     24          1           0        1.432654    4.266894   -0.372705
     25          7           0       -0.743131    3.141588   -1.044191
     26          6           0        0.445198    2.569851   -0.962920
     27          7           0        0.681775    1.244807   -1.238203
     28          1           0        1.622868    0.893480   -1.149432
     29          6           0       -0.286242    0.328407   -1.636990
     30          8           0        0.032577   -0.845893   -1.860856
     31          6           0       -1.568036    0.927941   -1.728781
     32          7           0       -2.793739    0.382819   -2.085690
     33          6           0       -3.629542    1.381905   -1.999196
     34          1           0       -4.697388    1.318301   -2.211163
     35          1           0       -4.357868    3.810947   -0.696181
     36          1           0       -2.956599    4.532150   -1.117222
     37          1           0       -4.070234    4.186779   -2.258054
     38          1           0        6.384443   -0.380034    0.098874
     39          1           0        6.653655   -0.249026   -1.637506
     40          1           0        5.452012    0.776216   -0.852457
     41          1           0        4.521106   -4.555062   -1.399027
     42          6           0        4.254020   -3.498923   -1.360754
     43          8           0        1.944771   -3.879621   -1.747500
     44          6           0        2.887586   -3.115199   -1.543651
     45          1           0        1.705013   -1.445896   -1.601043
     46          7           0        2.658572   -1.755675   -1.476578
     47          8           0        3.288157    0.410580   -1.215521
     48          6           0        3.587882   -0.769673   -1.258110
     49          1           0        6.235744   -2.799650   -1.000744
     50          6           0        5.183141   -2.560219   -1.145865
     51          6           0        5.910998   -0.201260   -0.855042
     52          7           0        4.883110   -1.218826   -1.091181
     53          1           0        3.983668    3.983132    2.688130
     54          1           0        2.836951    3.921311    1.529117
     55          1           0        4.415304    3.845694    1.120257
     56          1           0        1.645557   -3.003971    1.805484
     57          1           0        3.255160   -2.613397    2.213807
     58          7           0        2.345566   -2.301882    1.936655
     59          6           0        2.078974   -1.007489    1.750537
     60          6           0        2.600894    1.313256    1.691634
     61          7           0        1.370306    1.702576    1.319483
     62          1           0       -0.455402    0.876305    0.889744
     63          6           0        0.566448    0.648973    1.190411
     64          7           0        0.831572   -0.648215    1.376379
     65          1           0        5.710066    1.632319    2.518335
     66          6           0        4.713549    1.261426    2.276790
     67          7           0        4.364861   -0.001855    2.291098
     68          6           0        3.027667    0.016964    1.921949
     69          6           0        3.736006    3.583180    1.805698
     70          7           0        3.695274    2.112583    1.922719
 ---------------------------------------------------------------------

 SCF Done:  E(RwB97XD) =  -2048.71991682     A.U. after   15 cycles

 The electronic state is 1-A.
 Alpha  occ. eigenvalues --  -19.25878 -19.21975 -19.20596 -14.52392 -14.52176
 Alpha  occ. eigenvalues --  -14.48909 -14.48639 -14.47852 -14.47631 -14.46669
 Alpha  occ. eigenvalues --  -14.46109 -14.45127 -14.43622 -14.42900 -14.42471
 Alpha  occ. eigenvalues --  -14.42045 -14.41563 -14.41129 -14.40651 -14.40334
 Alpha  occ. eigenvalues --  -10.45478 -10.40894 -10.40096 -10.39321 -10.38110
 Alpha  occ. eigenvalues --  -10.37780 -10.37643 -10.36636 -10.35608 -10.35176
 Alpha  occ. eigenvalues --  -10.35049 -10.34247 -10.34230 -10.34206 -10.33515
 Alpha  occ. eigenvalues --  -10.33297 -10.33134 -10.31984 -10.31119 -10.31097
 Alpha  occ. eigenvalues --  -10.30749 -10.28683 -10.28004  -1.19452  -1.14830
 Alpha  occ. eigenvalues --   -1.13224  -1.13001  -1.11490  -1.10501  -1.09279
 Alpha  occ. eigenvalues --   -1.08821  -1.08368  -1.05163  -1.04242  -1.02468
 Alpha  occ. eigenvalues --   -1.00720  -1.00638  -0.99623  -0.98511  -0.97134
 Alpha  occ. eigenvalues --   -0.96488  -0.96195  -0.92831  -0.91016  -0.87300
 Alpha  occ. eigenvalues --   -0.85842  -0.84099  -0.83981  -0.83529  -0.82475
 Alpha  occ. eigenvalues --   -0.82383  -0.78842  -0.76618  -0.74559  -0.74443
 Alpha  occ. eigenvalues --   -0.73558  -0.73327  -0.73080  -0.71248  -0.70070
 Alpha  occ. eigenvalues --   -0.67290  -0.66543  -0.66495  -0.66388  -0.64404
 Alpha  occ. eigenvalues --   -0.63967  -0.63689  -0.62904  -0.62766  -0.61660
 Alpha  occ. eigenvalues --   -0.60517  -0.60355  -0.60086  -0.59475  -0.59279
 Alpha  occ. eigenvalues --   -0.59193  -0.58161  -0.57014  -0.56614  -0.56468
 Alpha  occ. eigenvalues --   -0.55974  -0.55599  -0.55447  -0.54906  -0.54305
 Alpha  occ. eigenvalues --   -0.53923  -0.53566  -0.53081  -0.52885  -0.52759
 Alpha  occ. eigenvalues --   -0.52343  -0.52269  -0.51922  -0.50942  -0.50372
 Alpha  occ. eigenvalues --   -0.50076  -0.49452  -0.49389  -0.48832  -0.48762
 Alpha  occ. eigenvalues --   -0.48680  -0.48307  -0.48107  -0.47885  -0.47341
 Alpha  occ. eigenvalues --   -0.47094  -0.45815  -0.45115  -0.43935  -0.43709
 Alpha  occ. eigenvalues --   -0.41344  -0.40552  -0.39453  -0.37669  -0.37435
 Alpha  occ. eigenvalues --   -0.37346  -0.37207  -0.36595  -0.35918  -0.34517
 Alpha  occ. eigenvalues --   -0.34150  -0.33722  -0.33581  -0.33147  -0.32608
 Alpha  occ. eigenvalues --   -0.32400  -0.31962  -0.31916  -0.31749  -0.31038
 Alpha  occ. eigenvalues --   -0.30563  -0.29033  -0.26020  -0.25112
 Alpha virt. eigenvalues --    0.03077   0.04538   0.07347   0.07826   0.08720
 Alpha virt. eigenvalues --    0.09329   0.09618   0.10779   0.11090   0.11565
 Alpha virt. eigenvalues --    0.12815   0.14084   0.14177   0.14596   0.14890

 Mulliken charges:
               1
     1  N   -0.312500
     2  C    0.180819
     3  C    0.044120
     4  N   -0.260422
     5  C    0.134852
     6  H    0.026989
     7  N   -0.286011
     8  C    0.133326
     9  H    0.009372
    10  N   -0.291630
    11  C    0.244910
    12  C    0.119914
    13  N   -0.055247
    14  H    0.108431
    15  H    0.087291
    16  H    0.025697
    17  H    0.032556
    18  H    0.026715
    19  N   -0.305861
    20  C    0.241018
    21  C    0.179574
    22  N   -0.078562
    23  H    0.109212
    24  H    0.114944
    25  N   -0.294480
    26  C    0.203274
    27  N   -0.124089
    28  H    0.117935
    29  C    0.147071
    30  O   -0.318763
    31  C    0.021181
    32  N   -0.223975
    33  C    0.124427
    34  H    0.024835
    35  H    0.030529
    36  H    0.027285
    37  H    0.024099
    38  H    0.062652
    39  H    0.058490
    40  H    0.070514
    41  H    0.030569
    42  C   -0.114261
    43  O   -0.265618
    44  C    0.173713
    45  H    0.133787
    46  N   -0.129586
    47  O   -0.345860
    48  C    0.352510
    49  H    0.047766
    50  C    0.172321
    51  C    0.040332
    52  N   -0.288605
    53  H    0.038585
    54  H    0.025631
    55  H    0.029148
    56  H    0.124052
    57  H    0.115677
    58  N   -0.065796
    59  C    0.093808
    60  C    0.237225
    61  N   -0.279635
    62  H    0.039270
    63  C    0.174706
    64  N   -0.301353
    65  H    0.032473
    66  C    0.130663
    67  N   -0.262043
    68  C    0.022740
    69  C    0.170046
    70  N   -0.312757
 Sum of Mulliken charges =  -0.00000

 Dipole moment (field-independent basis, Debye):
    X=              7.6010    Y=              5.8270    Z=              2.9844  Tot=             10.0318
 Quadrupole moment (field-independent basis, Debye-Ang):
   XX=           -149.9617   YY=           -221.0182   ZZ=           -255.1246
   XY=              2.7820   XZ=              6.3438   YZ=            -10.3938

 Normal termination of Gaussian 16 at Tue Jan 23 16:19:07 2018.
