 Gaussian 16, Revision A.03,
 Gaussian 16:  EM64L-G16RevA.03 25-Dec-2016

 ---------------------------------------
 #p wb97xd/cc-pvdz sp scf=(maxcycles=20)
 ---------------------------------------

 ------------------
 Base pair stacking
 ------------------
 Symbolic Z-matrix:
 Charge =  0 Multiplicity = 1

                         Standard orientation:
 ---------------------------------------------------------------------
 Center     Atomic      Atomic             Coordinates (Angstroms)
 Number     Number       Type             X           Y           Z
 ---------------------------------------------------------------------
      1          7           0        6.073183   -1.573894   -0.855423
      2          6           0        7.451518   -1.073760   -0.687894
      3          6           0        3.891863   -1.693113   -1.110282
      4          7           0        4.350817   -3.001918   -1.077048
      5          6           0        5.646610   -2.877720   -0.924839
      6          1           0        6.345605   -3.711784   -0.856507
      7          7           0        2.492558    0.200858   -1.243644
      8          6           0        3.601113    0.935124   -1.103829
      9          1           0        3.447875    2.013439   -1.105120
     10          7           0        4.864606    0.539207   -0.963314
     11          6           0        4.941980   -0.801800   -0.974837
     12          6           0        2.603789   -1.145489   -1.251327
     13          7           0        1.498351   -1.880160   -1.390787
     14          1           0        1.533519   -2.880081   -1.401991
     15          1           0        0.597837   -1.456328   -1.488768
     16          1           0        8.017620   -1.391483   -1.448649
     17          1           0        7.444782   -0.074322   -0.673401
     18          1           0        7.830024   -1.415365    0.172352
     19          7           0        3.390919    2.462316    1.479316
     20          6           0        2.053205    2.189312    1.324225
     21          6           0        4.033216    3.764550    1.210355
     22          7           0       -1.147068    3.223818    0.458330
     23          1           0       -2.063591    2.827311    0.413499
     24          1           0       -1.054593    4.183918    0.193049
     25          7           0        1.108395    3.057837    0.903469
     26          6           0       -0.088956    2.501305    0.856188
     27          7           0       -0.343683    1.194379    1.194654
     28          1           0       -1.290555    0.853829    1.128074
     29          6           0        0.613016    0.282809    1.630121
     30          8           0        0.277997   -0.874692    1.910650
     31          6           0        1.904320    0.866160    1.686050
     32          7           0        3.124013    0.319492    2.060751
     33          6           0        3.974224    1.300441    1.922552
     34          1           0        5.042386    1.230363    2.130855
     35          1           0        4.730424    3.654392    0.502836
     36          1           0        3.343064    4.416000    0.898008
     37          1           0        4.458984    4.107223    2.047084
     38          1           0       -6.079104   -0.403104   -0.030653
     39          1           0       -6.334650   -0.186939    1.699265
     40          1           0       -5.122942    0.781847    0.859864
     41          1           0       -4.269080   -4.531767    1.649985
     42          6           0       -3.986316   -3.482820    1.560677
     43          8           0       -1.680552   -3.880566    1.950992
     44          6           0       -2.613043   -3.112068    1.717206
     45          1           0       -1.405018   -1.460335    1.689264
     46          7           0       -2.363968   -1.760859    1.585157
     47          8           0       -2.962464    0.400276    1.226689
     48          6           0       -3.279715   -0.771939    1.326303
     49          1           0       -5.959613   -2.770679    1.180192
     50          6           0       -4.902568   -2.540982    1.307635
     51          6           0       -5.596619   -0.187251    0.910982
     52          7           0       -4.582676   -1.208386    1.188367
     53          1           0       -4.318343    4.132712   -2.157101
     54          1           0       -3.160230    3.943101   -1.023553
     55          1           0       -4.734392    3.817827   -0.610759
     56          1           0       -1.962035   -2.903563   -2.092636
     57          1           0       -3.576111   -2.473325   -2.438726
     58          7           0       -2.664268   -2.192891   -2.136861
     59          6           0       -2.397652   -0.927171   -1.808132
     60          6           0       -2.922182    1.370732   -1.482199
     61          7           0       -1.688541    1.718530   -1.080215
     62          1           0        0.142437    0.853512   -0.764186
     63          6           0       -0.881999    0.659098   -1.078821
     64          7           0       -1.147139   -0.609402   -1.407724
     65          1           0       -6.039749    1.773503   -2.237668
     66          6           0       -5.040400    1.380147   -2.049174
     67          7           0       -4.690120    0.127451   -2.209582
     68          6           0       -3.349398    0.107743   -1.853498
     69          6           0       -4.061492    3.636176   -1.327957
     70          7           0       -4.019876    2.188347   -1.610912
 ---------------------------------------------------------------------

 SCF Done:  E(RwB97XD) =  -2048.67863126     A.U. after   15 cycles

 The electronic state is 1-A.
 Alpha  occ. eigenvalues --  -19.25697 -19.21746 -19.20374 -14.52628 -14.52252
 Alpha  occ. eigenvalues --  -14.48865 -14.48270 -14.48215 -14.47666 -14.46292
 Alpha  occ. eigenvalues --  -14.45481 -14.45047 -14.44091 -14.42848 -14.42639
 Alpha  occ. eigenvalues --  -14.41577 -14.41530 -14.41138 -14.40404 -14.40352
 Alpha  occ. eigenvalues --  -10.45301 -10.40322 -10.39879 -10.39836 -10.37970
 Alpha  occ. eigenvalues --  -10.37808 -10.37617 -10.37067 -10.35656 -10.35497
 Alpha  occ. eigenvalues --  -10.34770 -10.34770 -10.34194 -10.33821 -10.33477
 Alpha  occ. eigenvalues --  -10.33242 -10.32887 -10.32331 -10.31104 -10.30947
 Alpha  occ. eigenvalues --  -10.30533 -10.28656 -10.27597  -1.19341  -1.15274
 Alpha  occ. eigenvalues --   -1.13025  -1.12791  -1.11449  -1.10256  -1.09329
 Alpha  occ. eigenvalues --   -1.09097  -1.08196  -1.05219  -1.04760  -1.02282
 Alpha  occ. eigenvalues --   -1.01158  -1.00711  -0.99331  -0.98265  -0.97138
 Alpha  occ. eigenvalues --   -0.96631  -0.96168  -0.92910  -0.90854  -0.87767
 Alpha  occ. eigenvalues --   -0.86324  -0.84083  -0.83670  -0.83347  -0.82472
 Alpha  occ. eigenvalues --   -0.82124  -0.78687  -0.77071  -0.75163  -0.74234
 Alpha  occ. eigenvalues --   -0.73251  -0.73128  -0.73105  -0.71291  -0.70592
 Alpha  occ. eigenvalues --   -0.67026  -0.66987  -0.66539  -0.66321  -0.64512
 Alpha  occ. eigenvalues --   -0.64205  -0.63470  -0.62964  -0.62788  -0.61271
 Alpha  occ. eigenvalues --   -0.60972  -0.60615  -0.60494  -0.59643  -0.59343
 Alpha  occ. eigenvalues --   -0.59193  -0.58379  -0.57183  -0.56575  -0.56358
 Alpha  occ. eigenvalues --   -0.55942  -0.55608  -0.55427  -0.55214  -0.54392
 Alpha  occ. eigenvalues --   -0.53990  -0.53328  -0.53276  -0.53088  -0.52582
 Alpha  occ. eigenvalues --   -0.52467  -0.52129  -0.51919  -0.51016  -0.50348
 Alpha  occ. eigenvalues --   -0.49841  -0.49540  -0.49275  -0.48993  -0.48815
 Alpha  occ. eigenvalues --   -0.48479  -0.48110  -0.47911  -0.47302  -0.47115
 Alpha  occ. eigenvalues --   -0.46887  -0.45910  -0.44921  -0.44155  -0.43684
 Alpha  occ. eigenvalues --   -0.41354  -0.41175  -0.39377  -0.38129  -0.37775
 Alpha  occ. eigenvalues --   -0.37427  -0.36904  -0.36703  -0.35983  -0.34585
 Alpha  occ. eigenvalues --   -0.34136  -0.33843  -0.33635  -0.32920  -0.32361
 Alpha  occ. eigenvalues --   -0.32205  -0.31783  -0.31520  -0.31168  -0.30633
 Alpha  occ. eigenvalues --   -0.30206  -0.29430  -0.26027  -0.24110
 Alpha virt. eigenvalues --    0.03284   0.03946   0.07008   0.07720   0.08619
 Alpha virt. eigenvalues --    0.09657   0.09999   0.10529   0.11058   0.11670
 Alpha virt. eigenvalues --    0.12737   0.13881   0.14131   0.14853   0.14981

 Mulliken charges:
               1
     1  N   -0.314058
     2  C    0.181132
     3  C    0.048714
     4  N   -0.261841
     5  C    0.135582
     6  H    0.026905
     7  N   -0.282806
     8  C    0.147612
     9  H    0.006026
    10  N   -0.291407
    11  C    0.252440
    12  C    0.115247
    13  N   -0.059091
    14  H    0.107386
    15  H    0.084625
    16  H    0.025380
    17  H    0.030891
    18  H    0.027678
    19  N   -0.294245
    20  C    0.218971
    21  C    0.178874
    22  N   -0.045313
    23  H    0.111146
    24  H    0.108111
    25  N   -0.295502
    26  C    0.184761
    27  N   -0.146672
    28  H    0.130684
    29  C    0.155905
    30  O   -0.321863
    31  C    0.021350
    32  N   -0.221837
    33  C    0.126525
    34  H    0.017660
    35  H    0.030766
    36  H    0.026528
    37  H    0.023939
    38  H    0.063720
    39  H    0.057164
    40  H    0.066265
    41  H    0.030241
    42  C   -0.112276
    43  O   -0.263741
    44  C    0.176513
    45  H    0.132008
    46  N   -0.127789
    47  O   -0.341245
    48  C    0.346233
    49  H    0.046870
    50  C    0.169124
    51  C    0.041248
    52  N   -0.288221
    53  H    0.039819
    54  H    0.016677
    55  H    0.032046
    56  H    0.122041
    57  H    0.117425
    58  N   -0.065058
    59  C    0.090368
    60  C    0.278239
    61  N   -0.325923
    62  H    0.043899
    63  C    0.178953
    64  N   -0.300471
    65  H    0.034226
    66  C    0.124769
    67  N   -0.258470
    68  C    0.013132
    69  C    0.183751
    70  N   -0.311738
 Sum of Mulliken charges =  -0.00000

 Dipole moment (field-independent basis, Debye):
    X=             -7.7033    Y=              5.8525    Z=             -3.6174  Tot=             10.3285
 Quadrupole moment (field-independent basis, Debye-Ang):
   XX=           -151.4807   YY=           -222.1184   ZZ=           -256.6266
   XY=             -2.2934   XZ=              2.2623   YZ=             12.2019

 Normal termination of Gaussian 16 at Wed Jan 24 00:01:20 2018.
