 Gaussian 16, Revision A.03,
 Gaussian 16:  EM64L-G16RevA.03 25-Dec-2016

 ---------------------------------------
 #p wb97xd/cc-pvdz sp scf=(maxcycles=20)
 ---------------------------------------

 ------------------
 Base pair stacking
 ------------------
 Symbolic Z-matrix:
 Charge =  0 Multiplicity = 1

                         Standard orientation:
 ---------------------------------------------------------------------
 Center     Atomic      Atomic             Coordinates (Angstroms)
 Number     Number       Type             X           Y           Z
 ---------------------------------------------------------------------
      1          7           0       -5.578024   -1.993210    1.082641
      2          6           0       -6.968672   -1.605516    1.388912
      3          6           0       -3.382809   -2.036658    0.954333
      4          7           0       -3.833594   -3.158701    0.274245
      5          6           0       -5.138081   -3.087618    0.378762
      6          1           0       -5.834279   -3.813417   -0.042517
      7          7           0       -1.990985   -0.393517    1.916557
      8          6           0       -3.112200    0.199854    2.338883
      9          1           0       -2.967019    1.118362    2.905922
     10          7           0       -4.379873   -0.169283    2.166719
     11          6           0       -4.446551   -1.308556    1.458158
     12          6           0       -2.091666   -1.538207    1.206185
     13          7           0       -0.973581   -2.132013    0.783747
     14          1           0       -1.000643   -2.980910    0.254735
     15          1           0       -0.071269   -1.748788    0.981528
     16          1           0       -7.408944   -2.329917    1.919557
     17          1           0       -6.970206   -0.757781    1.918504
     18          1           0       -7.473121   -1.465220    0.536940
     19          7           0       -3.883493    2.893090   -1.182002
     20          6           0       -2.535997    2.627801   -1.225944
     21          6           0       -4.485134    4.212977   -0.905189
     22          7           0        0.753049    3.711563   -0.962593
     23          1           0        1.668168    3.316529   -1.038423
     24          1           0        0.696348    4.688293   -0.754035
     25          7           0       -1.543167    3.521142   -1.025246
     26          6           0       -0.349145    2.965828   -1.132735
     27          7           0       -0.141163    1.637483   -1.415116
     28          1           0        0.806928    1.299709   -1.478377
     29          6           0       -1.147734    0.700206   -1.625354
     30          8           0       -0.852450   -0.475223   -1.874164
     31          6           0       -2.436089    1.281937   -1.513106
     32          7           0       -3.695519    0.713712   -1.646747
     33          6           0       -4.520680    1.704480   -1.442528
     34          1           0       -5.607813    1.622992   -1.470336
     35          1           0       -5.058262    4.155229   -0.088496
     36          1           0       -3.759244    4.882867   -0.754863
     37          1           0       -5.043053    4.496828   -1.684274
     38          1           0        5.730135    0.113829   -1.021868
     39          1           0        5.701764    0.206278   -2.781209
     40          1           0        4.632924    1.235593   -1.827545
     41          1           0        3.708198   -4.118068   -2.093964
     42          6           0        3.434594   -3.064596   -2.034195
     43          8           0        1.099544   -3.482178   -2.018476
     44          6           0        2.050945   -2.701814   -1.992813
     45          1           0        0.849178   -1.048687   -1.886560
     46          7           0        1.814891   -1.343911   -1.917645
     47          8           0        2.444907    0.835388   -1.813289
     48          6           0        2.751931   -0.341867   -1.880103
     49          1           0        5.437282   -2.333135   -2.028052
     50          6           0        4.371598   -2.109916   -1.999137
     51          6           0        5.100415    0.263921   -1.886150
     52          7           0        4.063754   -0.771290   -1.923833
     53          1           0        4.855778    3.022580    3.949895
     54          1           0        3.538041    3.367850    3.051869
     55          1           0        5.030545    3.623116    2.442502
     56          1           0        2.559655   -3.060960    0.374427
     57          1           0        4.205178   -2.742036    0.691683
     58          7           0        3.256069   -2.425596    0.708306
     59          6           0        2.934461   -1.210149    1.156000
     60          6           0        3.388812    0.940750    2.066463
     61          7           0        2.105931    1.338882    2.077119
     62          1           0        0.253317    0.619497    1.576188
     63          6           0        1.315136    0.378441    1.602669
     64          7           0        1.635327   -0.839576    1.153784
     65          1           0        6.583080    1.150500    2.519047
     66          6           0        5.568990    0.832591    2.275120
     67          7           0        5.255074   -0.336406    1.772546
     68          6           0        3.875644   -0.280993    1.635334
     69          6           0        4.477242    3.026868    3.024316
     70          7           0        4.488341    1.655688    2.478643
 ---------------------------------------------------------------------

 SCF Done:  E(RwB97XD) =  -2048.74045714     A.U. after   15 cycles

 The electronic state is 1-A.
 Alpha  occ. eigenvalues --  -19.26099 -19.22788 -19.20767 -14.52733 -14.52163
 Alpha  occ. eigenvalues --  -14.48925 -14.48113 -14.48029 -14.47878 -14.47119
 Alpha  occ. eigenvalues --  -14.46885 -14.45309 -14.43967 -14.43911 -14.42192
 Alpha  occ. eigenvalues --  -14.41528 -14.41018 -14.40592 -14.40294 -14.39675
 Alpha  occ. eigenvalues --  -10.45724 -10.41429 -10.40698 -10.39625 -10.38379
 Alpha  occ. eigenvalues --  -10.38081 -10.37786 -10.36872 -10.35389 -10.35070
 Alpha  occ. eigenvalues --  -10.34753 -10.34488 -10.33623 -10.33461 -10.33318
 Alpha  occ. eigenvalues --  -10.32632 -10.32500 -10.32405 -10.31453 -10.31039
 Alpha  occ. eigenvalues --  -10.30457 -10.28254 -10.27776  -1.19673  -1.14910
 Alpha  occ. eigenvalues --   -1.13707  -1.13367  -1.10735  -1.10584  -1.09641
 Alpha  occ. eigenvalues --   -1.08994  -1.08742  -1.04582  -1.04366  -1.02828
 Alpha  occ. eigenvalues --   -1.00749  -0.99947  -0.99749  -0.98712  -0.96739
 Alpha  occ. eigenvalues --   -0.96587  -0.96185  -0.92037  -0.91438  -0.87329
 Alpha  occ. eigenvalues --   -0.85624  -0.84264  -0.83731  -0.83264  -0.82644
 Alpha  occ. eigenvalues --   -0.81677  -0.79252  -0.76770  -0.74792  -0.74515
 Alpha  occ. eigenvalues --   -0.73853  -0.73665  -0.72238  -0.70408  -0.70166
 Alpha  occ. eigenvalues --   -0.67576  -0.66886  -0.66528  -0.65626  -0.64768
 Alpha  occ. eigenvalues --   -0.64105  -0.63905  -0.62846  -0.62045  -0.61934
 Alpha  occ. eigenvalues --   -0.60462  -0.60175  -0.59968  -0.59745  -0.59209
 Alpha  occ. eigenvalues --   -0.59068  -0.58567  -0.56742  -0.56212  -0.55971
 Alpha  occ. eigenvalues --   -0.55761  -0.55066  -0.54762  -0.54663  -0.54180
 Alpha  occ. eigenvalues --   -0.53868  -0.53645  -0.53479  -0.53249  -0.53165
 Alpha  occ. eigenvalues --   -0.52584  -0.52519  -0.51183  -0.50409  -0.50112
 Alpha  occ. eigenvalues --   -0.49772  -0.49698  -0.49435  -0.49187  -0.48911
 Alpha  occ. eigenvalues --   -0.48682  -0.48539  -0.48201  -0.47836  -0.47573
 Alpha  occ. eigenvalues --   -0.46326  -0.45859  -0.45222  -0.44286  -0.43776
 Alpha  occ. eigenvalues --   -0.40460  -0.40420  -0.39654  -0.37458  -0.37431
 Alpha  occ. eigenvalues --   -0.37406  -0.37296  -0.36478  -0.36270  -0.34537
 Alpha  occ. eigenvalues --   -0.34220  -0.33949  -0.33809  -0.32917  -0.32853
 Alpha  occ. eigenvalues --   -0.32773  -0.32669  -0.32433  -0.32035  -0.30262
 Alpha  occ. eigenvalues --   -0.29836  -0.29386  -0.25714  -0.24930
 Alpha virt. eigenvalues --    0.02444   0.04273   0.07444   0.08005   0.08556
 Alpha virt. eigenvalues --    0.09220   0.09632   0.10745   0.11682   0.11956
 Alpha virt. eigenvalues --    0.13118   0.14381   0.14781   0.15003   0.15059

 Mulliken charges:
               1
     1  N   -0.312912
     2  C    0.181176
     3  C    0.053467
     4  N   -0.257001
     5  C    0.136886
     6  H    0.024234
     7  N   -0.299275
     8  C    0.135063
     9  H    0.008408
    10  N   -0.292375
    11  C    0.250185
    12  C    0.107248
    13  N   -0.052662
    14  H    0.115244
    15  H    0.083193
    16  H    0.023723
    17  H    0.031700
    18  H    0.024342
    19  N   -0.311542
    20  C    0.251665
    21  C    0.180630
    22  N   -0.121833
    23  H    0.115023
    24  H    0.117741
    25  N   -0.311198
    26  C    0.247332
    27  N   -0.151744
    28  H    0.121731
    29  C    0.195879
    30  O   -0.322026
    31  C   -0.013709
    32  N   -0.225528
    33  C    0.132193
    34  H    0.022795
    35  H    0.029784
    36  H    0.029052
    37  H    0.024561
    38  H    0.063128
    39  H    0.059223
    40  H    0.072563
    41  H    0.028455
    42  C   -0.122874
    43  O   -0.265417
    44  C    0.145937
    45  H    0.131806
    46  N   -0.106964
    47  O   -0.341886
    48  C    0.334243
    49  H    0.047962
    50  C    0.166887
    51  C    0.038406
    52  N   -0.274547
    53  H    0.033688
    54  H    0.042692
    55  H    0.026780
    56  H    0.128343
    57  H    0.113494
    58  N   -0.046924
    59  C    0.080489
    60  C    0.250878
    61  N   -0.274833
    62  H    0.038225
    63  C    0.169517
    64  N   -0.308813
    65  H    0.036134
    66  C    0.138047
    67  N   -0.270589
    68  C    0.026292
    69  C    0.179952
    70  N   -0.311749
 Sum of Mulliken charges =  -0.00000

 Dipole moment (field-independent basis, Debye):
    X=              8.4246    Y=              6.5877    Z=              0.9852  Tot=             10.7397
 Quadrupole moment (field-independent basis, Debye-Ang):
   XX=           -155.9001   YY=           -218.1642   ZZ=           -250.7424
   XY=             -0.9519   XZ=             -2.5876   YZ=             -0.8999

 Normal termination of Gaussian 16 at Wed Jan 24 00:35:35 2018.
