 Gaussian 16, Revision A.03,
 Gaussian 16:  EM64L-G16RevA.03 25-Dec-2016

 ---------------------------------------
 #p wb97xd/cc-pvdz sp scf=(maxcycles=20)
 ---------------------------------------

 ------------------
 Base pair stacking
 ------------------
 Symbolic Z-matrix:
 Charge =  0 Multiplicity = 1

                         Standard orientation:
 ---------------------------------------------------------------------
 Center     Atomic      Atomic             Coordinates (Angstroms)
 Number     Number       Type             X           Y           Z
 ---------------------------------------------------------------------
      1          7           0       -5.567073   -1.934336    1.139384
      2          6           0       -6.959358   -1.517779    1.396337
      3          6           0       -3.370826   -1.994930    1.038766
      4          7           0       -3.818736   -3.169949    0.452718
      5          6           0       -5.123969   -3.086412    0.536793
      6          1           0       -5.818483   -3.843706    0.171963
      7          7           0       -1.982897   -0.279234    1.871201
      8          6           0       -3.106194    0.351438    2.229004
      9          1           0       -2.963456    1.314828    2.716623
     10          7           0       -4.373396   -0.027493    2.075626
     11          6           0       -4.436996   -1.223206    1.466818
     12          6           0       -2.080502   -1.480401    1.260679
     13          7           0       -0.960326   -2.111502    0.902758
     14          1           0       -0.985094   -3.002620    0.448323
     15          1           0       -0.058681   -1.715295    1.076557
     16          1           0       -7.407860   -2.192659    1.982477
     17          1           0       -6.963212   -0.627691    1.851162
     18          1           0       -7.454391   -1.449730    0.530132
     19          7           0       -3.902353    2.809917   -1.242919
     20          6           0       -2.554068    2.546182   -1.268189
     21          6           0       -4.509130    4.130580   -0.981454
     22          7           0        0.729990    3.635860   -0.969356
     23          1           0        1.646495    3.241626   -1.031252
     24          1           0        0.669405    4.613717   -0.767221
     25          7           0       -1.565006    3.442003   -1.060076
     26          6           0       -0.369003    2.887676   -1.149152
     27          7           0       -0.155763    1.557990   -1.421140
     28          1           0        0.793480    1.221143   -1.470385
     29          6           0       -1.158388    0.618168   -1.638705
     30          8           0       -0.858479   -0.558290   -1.876909
     31          6           0       -2.448806    1.198814   -1.546228
     32          7           0       -3.705716    0.628142   -1.692566
     33          6           0       -4.534656    1.618969   -1.504606
     34          1           0       -5.621248    1.535856   -1.545752
     35          1           0       -5.092527    4.076796   -0.171789
     36          1           0       -3.786067    4.802302   -0.825813
     37          1           0       -5.057457    4.409166   -1.769204
     38          1           0        5.711981    0.044522   -0.944448
     39          1           0        5.705868    0.126740   -2.704517
     40          1           0        4.623687    1.160124   -1.770520
     41          1           0        3.709215   -4.196224   -2.017543
     42          6           0        3.433535   -3.142789   -1.967377
     43          8           0        1.098995   -3.563409   -1.978916
     44          6           0        2.049004   -2.781629   -1.945698
     45          1           0        0.843899   -1.129530   -1.864337
     46          7           0        1.810303   -1.423637   -1.881428
     47          8           0        2.436174    0.757084   -1.781742
     48          6           0        2.745510   -0.420136   -1.837810
     49          1           0        5.435055   -2.408625   -1.940032
     50          6           0        4.368797   -2.186671   -1.925962
     51          6           0        5.093114    0.188759   -1.817524
     52          7           0        4.058338   -0.848041   -1.862360
     53          1           0        4.855189    3.279222    3.676867
     54          1           0        3.548172    3.549865    2.738469
     55          1           0        5.047903    3.747575    2.125434
     56          1           0        2.573448   -3.082293    0.612512
     57          1           0        4.216770   -2.742024    0.918803
     58          7           0        3.268732   -2.422611    0.898030
     59          6           0        2.947076   -1.172291    1.236275
     60          6           0        3.400050    1.047538    1.963525
     61          7           0        2.118638    1.448800    1.926245
     62          1           0        0.268638    0.694368    1.469142
     63          6           0        1.329196    0.453426    1.527571
     64          7           0        1.649448   -0.799546    1.188357
     65          1           0        6.590203    1.286216    2.430562
     66          6           0        5.577517    0.951457    2.203999
     67          7           0        5.264439   -0.255487    1.800312
     68          6           0        3.886731   -0.208102    1.644105
     69          6           0        4.486320    3.205085    2.750342
     70          7           0        4.497924    1.792092    2.324538
 ---------------------------------------------------------------------

 SCF Done:  E(RwB97XD) =  -2048.74499922     A.U. after   15 cycles

 The electronic state is 1-A.
 Alpha  occ. eigenvalues --  -19.25973 -19.22512 -19.20688 -14.52598 -14.52267
 Alpha  occ. eigenvalues --  -14.48854 -14.48111 -14.48038 -14.47971 -14.47028
 Alpha  occ. eigenvalues --  -14.46771 -14.45394 -14.44074 -14.44032 -14.42107
 Alpha  occ. eigenvalues --  -14.41698 -14.40952 -14.40687 -14.40399 -14.39785
 Alpha  occ. eigenvalues --  -10.45591 -10.41335 -10.40489 -10.39744 -10.38302
 Alpha  occ. eigenvalues --  -10.37979 -10.37879 -10.36979 -10.35497 -10.34962
 Alpha  occ. eigenvalues --  -10.34879 -10.34409 -10.33731 -10.33410 -10.33399
 Alpha  occ. eigenvalues --  -10.32727 -10.32598 -10.32503 -10.31325 -10.30978
 Alpha  occ. eigenvalues --  -10.30519 -10.28177 -10.27878  -1.19543  -1.15011
 Alpha  occ. eigenvalues --   -1.13453  -1.13282  -1.10673  -1.10658  -1.09501
 Alpha  occ. eigenvalues --   -1.09082  -1.08651  -1.04664  -1.04475  -1.02663
 Alpha  occ. eigenvalues --   -1.00840  -0.99881  -0.99836  -0.98631  -0.96677
 Alpha  occ. eigenvalues --   -0.96666  -0.96282  -0.92154  -0.91277  -0.87429
 Alpha  occ. eigenvalues --   -0.85725  -0.84187  -0.83606  -0.83350  -0.82573
 Alpha  occ. eigenvalues --   -0.81764  -0.79087  -0.76861  -0.74719  -0.74606
 Alpha  occ. eigenvalues --   -0.73749  -0.73516  -0.72344  -0.70508  -0.70247
 Alpha  occ. eigenvalues --   -0.67479  -0.66766  -0.66580  -0.65736  -0.64621
 Alpha  occ. eigenvalues --   -0.64125  -0.63860  -0.62760  -0.62158  -0.61845
 Alpha  occ. eigenvalues --   -0.60461  -0.60209  -0.60052  -0.59634  -0.59235
 Alpha  occ. eigenvalues --   -0.59163  -0.58463  -0.56681  -0.56103  -0.56064
 Alpha  occ. eigenvalues --   -0.55825  -0.55163  -0.54871  -0.54540  -0.54150
 Alpha  occ. eigenvalues --   -0.53770  -0.53640  -0.53486  -0.53269  -0.53074
 Alpha  occ. eigenvalues --   -0.52616  -0.52454  -0.51266  -0.50310  -0.50188
 Alpha  occ. eigenvalues --   -0.49823  -0.49597  -0.49530  -0.49044  -0.48808
 Alpha  occ. eigenvalues --   -0.48736  -0.48450  -0.48316  -0.47752  -0.47471
 Alpha  occ. eigenvalues --   -0.46418  -0.45801  -0.45195  -0.44349  -0.43770
 Alpha  occ. eigenvalues --   -0.40571  -0.40519  -0.39537  -0.37497  -0.37406
 Alpha  occ. eigenvalues --   -0.37358  -0.37335  -0.36575  -0.36148  -0.34601
 Alpha  occ. eigenvalues --   -0.34212  -0.33975  -0.33584  -0.32937  -0.32882
 Alpha  occ. eigenvalues --   -0.32756  -0.32588  -0.32396  -0.31964  -0.30358
 Alpha  occ. eigenvalues --   -0.29942  -0.29534  -0.25652  -0.25026
 Alpha virt. eigenvalues --    0.02626   0.04184   0.07313   0.08181   0.08490
 Alpha virt. eigenvalues --    0.09267   0.09711   0.10646   0.11578   0.11978
 Alpha virt. eigenvalues --    0.12944   0.14434   0.14757   0.14927   0.14969

 Mulliken charges:
               1
     1  N   -0.312978
     2  C    0.181181
     3  C    0.054031
     4  N   -0.257679
     5  C    0.137365
     6  H    0.024665
     7  N   -0.298644
     8  C    0.135096
     9  H    0.008671
    10  N   -0.291861
    11  C    0.251484
    12  C    0.107328
    13  N   -0.053491
    14  H    0.114415
    15  H    0.082933
    16  H    0.023823
    17  H    0.031479
    18  H    0.024883
    19  N   -0.311189
    20  C    0.251739
    21  C    0.180625
    22  N   -0.119779
    23  H    0.114508
    24  H    0.117100
    25  N   -0.310900
    26  C    0.245246
    27  N   -0.150579
    28  H    0.122229
    29  C    0.193457
    30  O   -0.322117
    31  C   -0.013462
    32  N   -0.225718
    33  C    0.132368
    34  H    0.022072
    35  H    0.029886
    36  H    0.028875
    37  H    0.024286
    38  H    0.062559
    39  H    0.059036
    40  H    0.072037
    41  H    0.027796
    42  C   -0.118817
    43  O   -0.266172
    44  C    0.151197
    45  H    0.131779
    46  N   -0.110248
    47  O   -0.341701
    48  C    0.333984
    49  H    0.047278
    50  C    0.166291
    51  C    0.037938
    52  N   -0.275920
    53  H    0.034065
    54  H    0.042041
    55  H    0.027033
    56  H    0.128249
    57  H    0.113965
    58  N   -0.049057
    59  C    0.079790
    60  C    0.251664
    61  N   -0.274882
    62  H    0.038467
    63  C    0.167648
    64  N   -0.307183
    65  H    0.036604
    66  C    0.138066
    67  N   -0.269460
    68  C    0.026475
    69  C    0.179831
    70  N   -0.311702
 Sum of Mulliken charges =  -0.00000

 Dipole moment (field-independent basis, Debye):
    X=              8.3574    Y=              6.5090    Z=              1.2012  Tot=             10.6610
 Quadrupole moment (field-independent basis, Debye-Ang):
   XX=           -155.6937   YY=           -218.0876   ZZ=           -251.8949
   XY=             -0.8106   XZ=             -2.8001   YZ=             -2.7139

 Normal termination of Gaussian 16 at Tue Jan 23 20:21:32 2018.
