 Gaussian 16, Revision A.03,
 Gaussian 16:  EM64L-G16RevA.03 25-Dec-2016

 ---------------------------------------
 #p wb97xd/cc-pvdz sp scf=(maxcycles=20)
 ---------------------------------------

 ------------------
 Base pair stacking
 ------------------
 Symbolic Z-matrix:
 Charge =  0 Multiplicity = 1

                         Standard orientation:
 ---------------------------------------------------------------------
 Center     Atomic      Atomic             Coordinates (Angstroms)
 Number     Number       Type             X           Y           Z
 ---------------------------------------------------------------------
      1          7           0        4.301977   -1.751474   -1.813425
      2          6           0        5.704888   -1.301788   -1.900778
      3          6           0        2.108003   -1.791375   -1.664533
      4          7           0        2.517566   -3.115839   -1.717000
      5          6           0        3.822967   -3.038793   -1.804607
      6          1           0        4.491990   -3.897615   -1.866137
      7          7           0        0.777460    0.151961   -1.537788
      8          6           0        1.918736    0.845398   -1.602781
      9          1           0        1.807001    1.928450   -1.575102
     10          7           0        3.171413    0.403896   -1.696394
     11          6           0        3.196757   -0.938895   -1.722999
     12          6           0        0.836557   -1.197386   -1.566820
     13          7           0       -0.301603   -1.891332   -1.502053
     14          1           0       -0.305316   -2.891771   -1.520322
     15          1           0       -1.188882   -1.435129   -1.433084
     16          1           0        6.110324   -1.633719   -2.752608
     17          1           0        5.737133   -0.302878   -1.884474
     18          1           0        6.221821   -1.662993   -1.124689
     19          7           0        5.180503    2.298289    0.690313
     20          6           0        3.828012    2.074048    0.782642
     21          6           0        5.809476    3.578892    0.309328
     22          7           0        0.562924    3.227798    0.518420
     23          1           0       -0.360081    2.864382    0.641882
     24          1           0        0.640002    4.185962    0.241476
     25          7           0        2.854236    2.978638    0.542766
     26          6           0        1.649093    2.465284    0.715146
     27          7           0        1.413445    1.165726    1.093462
     28          1           0        0.458677    0.859469    1.201160
     29          6           0        2.400024    0.217596    1.345593
     30          8           0        2.080309   -0.929357    1.681794
     31          6           0        3.700024    0.754356    1.164528
     32          7           0        4.947076    0.162011    1.309042
     33          6           0        5.792599    1.113196    1.018259
     34          1           0        6.877592    1.003740    1.027334
     35          1           0        6.360959    3.449355   -0.514007
     36          1           0        5.097873    4.256714    0.129218
     37          1           0        6.393302    3.900025    1.054204
     38          1           0       -4.503389   -0.218224    0.938083
     39          1           0       -4.430022   -0.006010    2.685718
     40          1           0       -3.358109    0.925417    1.639377
     41          1           0       -2.567110   -4.420861    2.255378
     42          6           0       -2.267663   -3.381960    2.116658
     43          8           0        0.054646   -3.864112    2.077707
     44          6           0       -0.876425   -3.061310    2.019312
     45          1           0        0.365107   -1.453292    1.771924
     46          7           0       -0.606936   -1.718844    1.844978
     47          8           0       -1.182260    0.464767    1.603972
     48          6           0       -1.518159   -0.696177    1.759043
     49          1           0       -4.250152   -2.597490    2.104616
     50          6           0       -3.180022   -2.406373    2.036482
     51          6           0       -3.849227   -0.026622    1.775601
     52          7           0       -2.839299   -1.085107    1.861744
     53          1           0       -5.938621    4.329533   -1.185074
     54          1           0       -4.600264    4.090551   -0.282984
     55          1           0       -6.075771    4.018103    0.411054
     56          1           0       -3.866755   -2.786150   -1.559055
     57          1           0       -5.500235   -2.296381   -1.603301
     58          7           0       -4.539007   -2.050707   -1.473331
     59          6           0       -4.171060   -0.797729   -1.197953
     60          6           0       -4.543499    1.514839   -0.779577
     61          7           0       -3.245351    1.815676   -0.610064
     62          1           0       -1.420021    0.883950   -0.635466
     63          6           0       -2.491097    0.728333   -0.757292
     64          7           0       -2.857722   -0.527486   -1.033107
     65          1           0       -7.730002    2.033510   -0.950916
     66          6           0       -6.727954    1.603587   -0.948983
     67          7           0       -6.458559    0.340477   -1.171858
     68          6           0       -5.076920    0.270589   -1.067392
     69          6           0       -5.552517    3.818056   -0.417413
     70          7           0       -5.615862    2.371798   -0.704387
 ---------------------------------------------------------------------

 SCF Done:  E(RwB97XD) =  -2048.72819750     A.U. after   15 cycles

 The electronic state is 1-A.
 Alpha  occ. eigenvalues --  -19.25039 -19.21035 -19.20493 -14.52859 -14.51391
 Alpha  occ. eigenvalues --  -14.49287 -14.48874 -14.48420 -14.46961 -14.46565
 Alpha  occ. eigenvalues --  -14.46454 -14.45756 -14.45235 -14.45063 -14.43322
 Alpha  occ. eigenvalues --  -14.41953 -14.41200 -14.41169 -14.41168 -14.40708
 Alpha  occ. eigenvalues --  -10.44537 -10.41051 -10.40847 -10.39176 -10.38300
 Alpha  occ. eigenvalues --  -10.38021 -10.37772 -10.36989 -10.36489 -10.35979
 Alpha  occ. eigenvalues --  -10.34218 -10.34162 -10.33856 -10.33563 -10.33331
 Alpha  occ. eigenvalues --  -10.33327 -10.33235 -10.33131 -10.31060 -10.30329
 Alpha  occ. eigenvalues --  -10.30202 -10.28643 -10.28010  -1.18657  -1.15680
 Alpha  occ. eigenvalues --   -1.13116  -1.12094  -1.11104  -1.10590  -1.10263
 Alpha  occ. eigenvalues --   -1.08518  -1.08323  -1.05713  -1.05491  -1.01564
 Alpha  occ. eigenvalues --   -1.01412  -1.01029  -0.99601  -0.98466  -0.97755
 Alpha  occ. eigenvalues --   -0.96799  -0.96648  -0.93191  -0.90191  -0.88309
 Alpha  occ. eigenvalues --   -0.86347  -0.84144  -0.83840  -0.82654  -0.82466
 Alpha  occ. eigenvalues --   -0.82018  -0.78024  -0.77704  -0.75574  -0.74571
 Alpha  occ. eigenvalues --   -0.73533  -0.73153  -0.72507  -0.71344  -0.71068
 Alpha  occ. eigenvalues --   -0.67526  -0.67280  -0.66554  -0.65725  -0.64900
 Alpha  occ. eigenvalues --   -0.64187  -0.63325  -0.63028  -0.62460  -0.61706
 Alpha  occ. eigenvalues --   -0.61241  -0.60918  -0.60585  -0.60100  -0.59036
 Alpha  occ. eigenvalues --   -0.58744  -0.58206  -0.57262  -0.56628  -0.56103
 Alpha  occ. eigenvalues --   -0.55769  -0.55744  -0.55578  -0.55132  -0.54189
 Alpha  occ. eigenvalues --   -0.53999  -0.53862  -0.53328  -0.53037  -0.52846
 Alpha  occ. eigenvalues --   -0.51798  -0.51576  -0.51456  -0.50630  -0.50557
 Alpha  occ. eigenvalues --   -0.50057  -0.49863  -0.49473  -0.49043  -0.48983
 Alpha  occ. eigenvalues --   -0.48691  -0.47977  -0.47869  -0.47367  -0.46964
 Alpha  occ. eigenvalues --   -0.46886  -0.45357  -0.45061  -0.44672  -0.43056
 Alpha  occ. eigenvalues --   -0.41464  -0.41215  -0.38971  -0.38321  -0.38191
 Alpha  occ. eigenvalues --   -0.37482  -0.37218  -0.37105  -0.35576  -0.35196
 Alpha  occ. eigenvalues --   -0.35160  -0.34389  -0.33724  -0.33311  -0.32864
 Alpha  occ. eigenvalues --   -0.32571  -0.32223  -0.31774  -0.30927  -0.30762
 Alpha  occ. eigenvalues --   -0.30525  -0.30265  -0.26485  -0.24967
 Alpha virt. eigenvalues --    0.03211   0.04028   0.06244   0.07766   0.09001
 Alpha virt. eigenvalues --    0.09237   0.09717   0.09979   0.10611   0.11843
 Alpha virt. eigenvalues --    0.13564   0.14236   0.14465   0.14555   0.14702

 Mulliken charges:
               1
     1  N   -0.309264
     2  C    0.183372
     3  C    0.069610
     4  N   -0.263187
     5  C    0.146747
     6  H    0.028775
     7  N   -0.282362
     8  C    0.113452
     9  H    0.021282
    10  N   -0.265160
    11  C    0.251233
    12  C    0.073854
    13  N   -0.069120
    14  H    0.109693
    15  H    0.082029
    16  H    0.020003
    17  H    0.029442
    18  H    0.034315
    19  N   -0.308815
    20  C    0.262207
    21  C    0.182597
    22  N   -0.102453
    23  H    0.124540
    24  H    0.116747
    25  N   -0.290118
    26  C    0.169303
    27  N   -0.101493
    28  H    0.118780
    29  C    0.147931
    30  O   -0.316876
    31  C    0.015916
    32  N   -0.232150
    33  C    0.113220
    34  H    0.020908
    35  H    0.025280
    36  H    0.029787
    37  H    0.024454
    38  H    0.068195
    39  H    0.051105
    40  H    0.082430
    41  H    0.026226
    42  C   -0.116084
    43  O   -0.263377
    44  C    0.176855
    45  H    0.135139
    46  N   -0.128708
    47  O   -0.347569
    48  C    0.350101
    49  H    0.042101
    50  C    0.165107
    51  C    0.037599
    52  N   -0.275764
    53  H    0.034768
    54  H    0.038851
    55  H    0.032009
    56  H    0.119137
    57  H    0.121721
    58  N   -0.064166
    59  C    0.061473
    60  C    0.222756
    61  N   -0.265216
    62  H    0.014286
    63  C    0.175649
    64  N   -0.300827
    65  H    0.040961
    66  C    0.139069
    67  N   -0.255234
    68  C    0.035638
    69  C    0.181070
    70  N   -0.309778
 Sum of Mulliken charges =  -0.00000

 Dipole moment (field-independent basis, Debye):
    X=             -8.0850    Y=              6.6569    Z=             -2.1993  Tot=             10.7013
 Quadrupole moment (field-independent basis, Debye-Ang):
   XX=           -164.8590   YY=           -220.9319   ZZ=           -253.2301
   XY=              7.3494   XZ=            -18.3691   YZ=             12.9539

 Normal termination of Gaussian 16 at Wed Jan 24 03:20:38 2018.
