 Gaussian 16, Revision A.03,
 Gaussian 16:  EM64L-G16RevA.03 25-Dec-2016

 ---------------------------------------
 #p wb97xd/cc-pvdz sp scf=(maxcycles=20)
 ---------------------------------------

 ------------------
 Base pair stacking
 ------------------
 Symbolic Z-matrix:
 Charge =  0 Multiplicity = 1

                         Standard orientation:
 ---------------------------------------------------------------------
 Center     Atomic      Atomic             Coordinates (Angstroms)
 Number     Number       Type             X           Y           Z
 ---------------------------------------------------------------------
      1          7           0       -6.937558   -1.470606    0.268215
      2          6           0       -8.312490   -0.946261    0.155729
      3          6           0       -4.766792   -1.641124    0.578079
      4          7           0       -5.213290   -2.913360    0.251273
      5          6           0       -6.503225   -2.759705    0.077676
      6          1           0       -7.192154   -3.560468   -0.192688
      7          7           0       -3.389377    0.181841    1.163286
      8          6           0       -4.497746    0.929153    1.137937
      9          1           0       -4.353584    1.982869    1.372822
     10          7           0       -5.751555    0.571946    0.867269
     11          6           0       -5.818229   -0.741235    0.592451
     12          6           0       -3.489697   -1.135743    0.882257
     13          7           0       -2.384430   -1.883373    0.907048
     14          1           0       -2.411747   -2.863115    0.705575
     15          1           0       -1.491911   -1.489874    1.127739
     16          1           0       -8.904895   -1.417457    0.809334
     17          1           0       -8.313460    0.033688    0.352766
     18          1           0       -8.654666   -1.098435   -0.771500
     19          7           0       -2.367876    2.625231   -1.744723
     20          6           0       -1.047471    2.319372   -1.518819
     21          6           0       -2.962909    3.972331   -1.635461
     22          7           0        2.167553    3.317238   -0.664623
     23          1           0        3.065247    2.893032   -0.548789
     24          1           0        2.107584    4.303001   -0.505258
     25          7           0       -0.079572    3.191078   -1.161946
     26          6           0        1.091902    2.597394   -1.017775
     27          7           0        1.301590    1.253019   -1.208072
     28          1           0        2.231310    0.885572   -1.075549
     29          6           0        0.320443    0.337443   -1.575394
     30          8           0        0.614899   -0.855345   -1.721304
     31          6           0       -0.943511    0.960445   -1.734006
     32          7           0       -2.173899    0.423956   -2.087895
     33          6           0       -2.986240    1.445839   -2.081359
     34          1           0       -4.050175    1.394839   -2.315301
     35          1           0       -3.683526    3.965071   -0.943028
     36          1           0       -2.255326    4.626532   -1.371616
     37          1           0       -3.350622    4.239774   -2.516911
     38          1           0        6.929517   -0.422718    0.362510
     39          1           0        7.241909   -0.402356   -1.371459
     40          1           0        6.048457    0.696101   -0.678327
     41          1           0        4.997504   -4.634917   -0.930263
     42          6           0        4.756065   -3.572384   -0.961284
     43          8           0        2.447573   -3.921047   -1.381277
     44          6           0        3.404231   -3.168214   -1.200088
     45          1           0        2.265380   -1.477949   -1.385411
     46          7           0        3.207780   -1.802096   -1.219435
     47          8           0        3.885098    0.360468   -1.072015
     48          6           0        4.156144   -0.826955   -1.037133
     49          1           0        6.745809   -2.899698   -0.594914
     50          6           0        5.703154   -2.644657   -0.779762
     51          6           0        6.482819   -0.290309   -0.611654
     52          7           0        5.435550   -1.295689   -0.812135
     53          1           0        3.348459    3.831552    3.154128
     54          1           0        2.236572    3.885716    1.961290
     55          1           0        3.826473    3.850340    1.593822
     56          1           0        1.054629   -3.032199    1.513150
     57          1           0        2.650518   -2.684882    2.005692
     58          7           0        1.748726   -2.346949    1.734052
     59          6           0        1.484551   -1.040337    1.669592
     60          6           0        2.002266    1.274529    1.856932
     61          7           0        0.782226    1.699479    1.489034
     62          1           0       -1.027979    0.920859    0.925534
     63          6           0       -0.014875    0.664299    1.232238
     64          7           0        0.247845   -0.645070    1.296221
     65          1           0        5.084904    1.508411    2.802858
     66          6           0        4.096860    1.163823    2.496300
     67          7           0        3.751023   -0.094464    2.374758
     68          6           0        2.425248   -0.038431    1.969895
     69          6           0        3.127913    3.521362    2.229394
     70          7           0        3.087373    2.046431    2.198541
 ---------------------------------------------------------------------

 SCF Done:  E(RwB97XD) =  -2048.73680964     A.U. after   15 cycles

 The electronic state is 1-A.
 Alpha  occ. eigenvalues --  -19.25952 -19.22179 -19.20666 -14.52518 -14.51622
 Alpha  occ. eigenvalues --  -14.49091 -14.48791 -14.48005 -14.47124 -14.46853
 Alpha  occ. eigenvalues --  -14.46789 -14.44569 -14.42986 -14.42773 -14.42417
 Alpha  occ. eigenvalues --  -14.42091 -14.41763 -14.41246 -14.40795 -14.40444
 Alpha  occ. eigenvalues --  -10.45596 -10.41376 -10.40288 -10.38684 -10.38292
 Alpha  occ. eigenvalues --  -10.37924 -10.37166 -10.36034 -10.35699 -10.35391
 Alpha  occ. eigenvalues --  -10.34422 -10.34419 -10.34389 -10.33706 -10.33483
 Alpha  occ. eigenvalues --  -10.33424 -10.33269 -10.31595 -10.31216 -10.31209
 Alpha  occ. eigenvalues --  -10.30850 -10.28876 -10.28211  -1.19518  -1.14284
 Alpha  occ. eigenvalues --   -1.13314  -1.13183  -1.11682  -1.10630  -1.09411
 Alpha  occ. eigenvalues --   -1.08760  -1.07998  -1.05280  -1.03567  -1.02627
 Alpha  occ. eigenvalues --   -1.00718  -1.00322  -0.99862  -0.98583  -0.97270
 Alpha  occ. eigenvalues --   -0.96594  -0.95582  -0.92927  -0.91164  -0.86701
 Alpha  occ. eigenvalues --   -0.85184  -0.84255  -0.84188  -0.83769  -0.82611
 Alpha  occ. eigenvalues --   -0.82537  -0.78985  -0.75977  -0.74730  -0.73899
 Alpha  occ. eigenvalues --   -0.73643  -0.73480  -0.73203  -0.71376  -0.69387
 Alpha  occ. eigenvalues --   -0.67586  -0.66664  -0.66598  -0.65729  -0.64569
 Alpha  occ. eigenvalues --   -0.63868  -0.63289  -0.62937  -0.62794  -0.62038
 Alpha  occ. eigenvalues --   -0.60490  -0.59818  -0.59651  -0.59529  -0.59278
 Alpha  occ. eigenvalues --   -0.58622  -0.58570  -0.56862  -0.56751  -0.56661
 Alpha  occ. eigenvalues --   -0.56067  -0.55663  -0.55058  -0.54523  -0.54389
 Alpha  occ. eigenvalues --   -0.53743  -0.53491  -0.53038  -0.52870  -0.52586
 Alpha  occ. eigenvalues --   -0.52344  -0.52015  -0.51866  -0.51049  -0.50478
 Alpha  occ. eigenvalues --   -0.50227  -0.49546  -0.49425  -0.48946  -0.48770
 Alpha  occ. eigenvalues --   -0.48726  -0.48331  -0.47953  -0.47824  -0.47485
 Alpha  occ. eigenvalues --   -0.47270  -0.45523  -0.45348  -0.44150  -0.43092
 Alpha  occ. eigenvalues --   -0.41493  -0.39657  -0.39510  -0.37552  -0.37459
 Alpha  occ. eigenvalues --   -0.37297  -0.36663  -0.36485  -0.35876  -0.34676
 Alpha  occ. eigenvalues --   -0.33883  -0.33770  -0.33351  -0.33258  -0.32892
 Alpha  occ. eigenvalues --   -0.32720  -0.32407  -0.32086  -0.31888  -0.31245
 Alpha  occ. eigenvalues --   -0.30656  -0.28774  -0.26082  -0.25500
 Alpha virt. eigenvalues --    0.02951   0.04881   0.07584   0.07752   0.08427
 Alpha virt. eigenvalues --    0.09439   0.09518   0.10653   0.11369   0.12110
 Alpha virt. eigenvalues --    0.12741   0.13749   0.14576   0.14729   0.14773

 Mulliken charges:
               1
     1  N   -0.311291
     2  C    0.180829
     3  C    0.034332
     4  N   -0.258831
     5  C    0.133854
     6  H    0.027542
     7  N   -0.287719
     8  C    0.125940
     9  H    0.011430
    10  N   -0.289026
    11  C    0.240619
    12  C    0.123392
    13  N   -0.053939
    14  H    0.108440
    15  H    0.088951
    16  H    0.026169
    17  H    0.034608
    18  H    0.026291
    19  N   -0.309365
    20  C    0.234410
    21  C    0.181112
    22  N   -0.111451
    23  H    0.115848
    24  H    0.115814
    25  N   -0.289365
    26  C    0.219281
    27  N   -0.117072
    28  H    0.117217
    29  C    0.144447
    30  O   -0.318748
    31  C    0.005719
    32  N   -0.221226
    33  C    0.129938
    34  H    0.030273
    35  H    0.029829
    36  H    0.027862
    37  H    0.024552
    38  H    0.061673
    39  H    0.059752
    40  H    0.071759
    41  H    0.031313
    42  C   -0.114058
    43  O   -0.268972
    44  C    0.169184
    45  H    0.136975
    46  N   -0.134365
    47  O   -0.351234
    48  C    0.362329
    49  H    0.048474
    50  C    0.176254
    51  C    0.042382
    52  N   -0.293543
    53  H    0.034449
    54  H    0.042241
    55  H    0.011386
    56  H    0.124876
    57  H    0.115149
    58  N   -0.060423
    59  C    0.107633
    60  C    0.226058
    61  N   -0.258355
    62  H    0.058448
    63  C    0.147454
    64  N   -0.297641
    65  H    0.028723
    66  C    0.131359
    67  N   -0.267259
    68  C    0.025448
    69  C    0.171398
    70  N   -0.309535
 Sum of Mulliken charges =  -0.00000

 Dipole moment (field-independent basis, Debye):
    X=              7.6731    Y=              5.6711    Z=              2.5686  Tot=              9.8811
 Quadrupole moment (field-independent basis, Debye-Ang):
   XX=           -145.5161   YY=           -220.9594   ZZ=           -252.3629
   XY=              5.0320   XZ=             12.6957   YZ=             -8.7513

 Normal termination of Gaussian 16 at Tue Jan 23 14:23:06 2018.
