 Gaussian 16, Revision A.03,
 Gaussian 16:  EM64L-G16RevA.03 25-Dec-2016

 ---------------------------------------
 #p wb97xd/cc-pvdz sp scf=(maxcycles=20)
 ---------------------------------------

 ------------------
 Base pair stacking
 ------------------
 Symbolic Z-matrix:
 Charge =  0 Multiplicity = 1

                         Standard orientation:
 ---------------------------------------------------------------------
 Center     Atomic      Atomic             Coordinates (Angstroms)
 Number     Number       Type             X           Y           Z
 ---------------------------------------------------------------------
      1          7           0       -6.148723   -1.665912    0.792445
      2          6           0       -7.539428   -1.174794    0.844963
      3          6           0       -3.956436   -1.800459    0.906744
      4          7           0       -4.400626   -3.047294    0.491018
      5          6           0       -5.703616   -2.916331    0.438803
      6          1           0       -6.394971   -3.707064    0.146044
      7          7           0       -2.575305   -0.003117    1.558654
      8          6           0       -3.698047    0.709267    1.698381
      9          1           0       -3.557941    1.738645    2.025497
     10          7           0       -4.961952    0.342708    1.495644
     11          6           0       -5.022501   -0.938496    1.096588
     12          6           0       -2.669783   -1.289118    1.155708
     13          7           0       -1.550153   -2.001855    1.015648
     14          1           0       -1.572685   -2.957404    0.719628
     15          1           0       -0.651164   -1.605195    1.201727
     16          1           0       -8.064618   -1.725646    1.493750
     17          1           0       -7.545456   -0.219447    1.138889
     18          1           0       -7.954507   -1.245331   -0.062080
     19          7           0       -3.269142    2.714161   -1.562495
     20          6           0       -1.930332    2.423521   -1.456853
     21          6           0       -3.870157    4.049899   -1.374682
     22          7           0        1.332846    3.451943   -0.860372
     23          1           0        2.242647    3.038882   -0.830649
     24          1           0        1.273901    4.433388   -0.675957
     25          7           0       -0.946838    3.302290   -1.166055
     26          6           0        0.240357    2.723304   -1.135075
     27          7           0        0.450481    1.386190   -1.370574
     28          1           0        1.392878    1.030018   -1.325805
     29          6           0       -0.546532    0.463559   -1.671570
     30          8           0       -0.250125   -0.721636   -1.866949
     31          6           0       -1.827472    1.070767   -1.708407
     32          7           0       -3.076583    0.523163   -1.966776
     33          6           0       -3.898660    1.532579   -1.869464
     34          1           0       -4.977988    1.470431   -2.012497
     35          1           0       -4.528490    4.018375   -0.623404
     36          1           0       -3.151137    4.709206   -1.158796
     37          1           0       -4.335589    4.328819   -2.213950
     38          1           0        6.213906   -0.236520   -0.322685
     39          1           0        6.375956   -0.177505   -2.076230
     40          1           0        5.232179    0.889346   -1.260774
     41          1           0        4.233253   -4.450689   -1.532808
     42          6           0        3.976175   -3.391438   -1.520915
     43          8           0        1.644899   -3.765947   -1.748952
     44          6           0        2.603666   -3.002729   -1.634663
     45          1           0        1.431104   -1.326207   -1.686593
     46          7           0        2.388430   -1.639551   -1.608670
     47          8           0        3.047571    0.529500   -1.474760
     48          6           0        3.336123   -0.654238   -1.487932
     49          1           0        5.981070   -2.696677   -1.312254
     50          6           0        4.923140   -2.453524   -1.401828
     51          6           0        5.683515   -0.091647   -1.252081
     52          7           0        4.636141   -1.108291   -1.383078
     53          1           0        4.223577    3.634900    3.353752
     54          1           0        3.014929    3.772503    2.266399
     55          1           0        4.568941    3.821433    1.769654
     56          1           0        1.951945   -3.100349    1.222668
     57          1           0        3.575406   -2.755127    1.616707
     58          7           0        2.646857   -2.419499    1.454348
     59          6           0        2.349568   -1.121459    1.543112
     60          6           0        2.830145    1.178338    1.919537
     61          7           0        1.574583    1.600385    1.696232
     62          1           0       -0.258853    0.826646    1.205853
     63          6           0        0.781737    0.571880    1.402144
     64          7           0        1.077595   -0.728910    1.312753
     65          1           0        5.975195    1.411040    2.631347
     66          6           0        4.972793    1.068596    2.372755
     67          7           0        4.645731   -0.181517    2.153823
     68          6           0        3.289840   -0.125982    1.865365
     69          6           0        3.933358    3.410623    2.423444
     70          7           0        3.922804    1.945321    2.247939
 ---------------------------------------------------------------------

 SCF Done:  E(RwB97XD) =  -2048.74868901     A.U. after   15 cycles

 The electronic state is 1-A.
 Alpha  occ. eigenvalues --  -19.25932 -19.22256 -19.20621 -14.52494 -14.52140
 Alpha  occ. eigenvalues --  -14.48701 -14.48554 -14.47866 -14.47677 -14.46899
 Alpha  occ. eigenvalues --  -14.46624 -14.45213 -14.43780 -14.43755 -14.42049
 Alpha  occ. eigenvalues --  -14.42015 -14.41170 -14.40756 -14.40750 -14.40030
 Alpha  occ. eigenvalues --  -10.45541 -10.41164 -10.40325 -10.39447 -10.38198
 Alpha  occ. eigenvalues --  -10.37937 -10.37709 -10.36762 -10.35288 -10.35221
 Alpha  occ. eigenvalues --  -10.35016 -10.34281 -10.33852 -10.33812 -10.33227
 Alpha  occ. eigenvalues --  -10.33127 -10.32927 -10.32222 -10.31255 -10.30862
 Alpha  occ. eigenvalues --  -10.30817 -10.28285 -10.28041  -1.19496  -1.14837
 Alpha  occ. eigenvalues --   -1.13246  -1.13189  -1.11116  -1.10533  -1.09374
 Alpha  occ. eigenvalues --   -1.08803  -1.08523  -1.04802  -1.04355  -1.02559
 Alpha  occ. eigenvalues --   -1.00658  -1.00240  -0.99714  -0.98521  -0.96780
 Alpha  occ. eigenvalues --   -0.96517  -0.96314  -0.92468  -0.91156  -0.87261
 Alpha  occ. eigenvalues --   -0.85657  -0.84040  -0.83744  -0.83565  -0.82429
 Alpha  occ. eigenvalues --   -0.82140  -0.78957  -0.76626  -0.74581  -0.74380
 Alpha  occ. eigenvalues --   -0.73636  -0.73417  -0.72709  -0.70866  -0.70021
 Alpha  occ. eigenvalues --   -0.67346  -0.66592  -0.66392  -0.66113  -0.64490
 Alpha  occ. eigenvalues --   -0.63883  -0.63744  -0.62685  -0.62526  -0.61700
 Alpha  occ. eigenvalues --   -0.60276  -0.60150  -0.60037  -0.59550  -0.59179
 Alpha  occ. eigenvalues --   -0.59113  -0.58337  -0.56627  -0.56378  -0.56208
 Alpha  occ. eigenvalues --   -0.56017  -0.55308  -0.54999  -0.54552  -0.54381
 Alpha  occ. eigenvalues --   -0.53719  -0.53646  -0.53150  -0.53024  -0.52938
 Alpha  occ. eigenvalues --   -0.52410  -0.52387  -0.51616  -0.50568  -0.50165
 Alpha  occ. eigenvalues --   -0.50051  -0.49494  -0.49488  -0.48896  -0.48742
 Alpha  occ. eigenvalues --   -0.48637  -0.48451  -0.48246  -0.47656  -0.47395
 Alpha  occ. eigenvalues --   -0.46770  -0.45620  -0.44768  -0.44465  -0.43966
 Alpha  occ. eigenvalues --   -0.40942  -0.40389  -0.39487  -0.37427  -0.37357
 Alpha  occ. eigenvalues --   -0.37245  -0.36979  -0.36969  -0.36010  -0.34526
 Alpha  occ. eigenvalues --   -0.34028  -0.33730  -0.33386  -0.33274  -0.33155
 Alpha  occ. eigenvalues --   -0.32639  -0.32392  -0.32122  -0.31814  -0.30716
 Alpha  occ. eigenvalues --   -0.30250  -0.29531  -0.25701  -0.25178
 Alpha virt. eigenvalues --    0.02837   0.04455   0.07295   0.08195   0.08615
 Alpha virt. eigenvalues --    0.09268   0.09744   0.10851   0.11248   0.11671
 Alpha virt. eigenvalues --    0.12693   0.14457   0.14533   0.14591   0.15034

 Mulliken charges:
               1
     1  N   -0.312574
     2  C    0.180841
     3  C    0.049343
     4  N   -0.259353
     5  C    0.134534
     6  H    0.025732
     7  N   -0.291957
     8  C    0.135253
     9  H    0.008951
    10  N   -0.292372
    11  C    0.244972
    12  C    0.116630
    13  N   -0.052865
    14  H    0.111094
    15  H    0.087274
    16  H    0.025065
    17  H    0.032312
    18  H    0.025451
    19  N   -0.310639
    20  C    0.249549
    21  C    0.180403
    22  N   -0.108332
    23  H    0.112578
    24  H    0.114600
    25  N   -0.306847
    26  C    0.233569
    27  N   -0.141052
    28  H    0.118970
    29  C    0.172651
    30  O   -0.321458
    31  C    0.000400
    32  N   -0.226305
    33  C    0.131956
    34  H    0.023915
    35  H    0.030713
    36  H    0.027950
    37  H    0.023852
    38  H    0.062593
    39  H    0.058364
    40  H    0.070809
    41  H    0.029511
    42  C   -0.113036
    43  O   -0.267409
    44  C    0.158112
    45  H    0.134300
    46  N   -0.118840
    47  O   -0.343964
    48  C    0.342214
    49  H    0.048676
    50  C    0.169952
    51  C    0.039656
    52  N   -0.283584
    53  H    0.035044
    54  H    0.039668
    55  H    0.025073
    56  H    0.128892
    57  H    0.115431
    58  N   -0.059689
    59  C    0.081249
    60  C    0.245217
    61  N   -0.270624
    62  H    0.039014
    63  C    0.164651
    64  N   -0.301132
    65  H    0.034260
    66  C    0.136018
    67  N   -0.266093
    68  C    0.026270
    69  C    0.177245
    70  N   -0.312654
 Sum of Mulliken charges =  -0.00000

 Dipole moment (field-independent basis, Debye):
    X=              8.1410    Y=              6.0859    Z=              2.0603  Tot=             10.3711
 Quadrupole moment (field-independent basis, Debye-Ang):
   XX=           -151.7842   YY=           -219.1496   ZZ=           -253.3838
   XY=              1.1749   XZ=              4.0395   YZ=             -6.5462

 Normal termination of Gaussian 16 at Wed Jan 24 04:41:19 2018.
