 Gaussian 16, Revision A.03,
 Gaussian 16:  EM64L-G16RevA.03 25-Dec-2016

 ---------------------------------------
 #p wb97xd/cc-pvdz sp scf=(maxcycles=20)
 ---------------------------------------

 ------------------
 Base pair stacking
 ------------------
 Symbolic Z-matrix:
 Charge =  0 Multiplicity = 1

                         Standard orientation:
 ---------------------------------------------------------------------
 Center     Atomic      Atomic             Coordinates (Angstroms)
 Number     Number       Type             X           Y           Z
 ---------------------------------------------------------------------
      1          7           0       -5.556501   -1.881639    1.179805
      2          6           0       -6.950076   -1.442467    1.387396
      3          6           0       -3.359506   -1.955513    1.108550
      4          7           0       -3.805009   -3.172384    0.613098
      5          6           0       -5.110784   -3.079178    0.675855
      6          1           0       -5.803852   -3.861421    0.364899
      7          7           0       -1.974892   -0.182360    1.816867
      8          6           0       -3.099869    0.477603    2.110883
      9          1           0       -2.959168    1.476443    2.521724
     10          7           0       -4.366608    0.090808    1.974226
     11          6           0       -4.427646   -1.149480    1.461963
     12          6           0       -2.069934   -1.428131    1.302961
     13          7           0       -0.948094   -2.088531    1.008838
     14          1           0       -0.970938   -3.012976    0.626603
     15          1           0       -0.047045   -1.681978    1.160438
     16          1           0       -7.407133   -2.067367    2.020471
     17          1           0       -6.955854   -0.518954    1.769767
     18          1           0       -7.435496   -1.442455    0.513120
     19          7           0       -3.919978    2.735748   -1.281080
     20          6           0       -2.571141    2.473788   -1.289592
     21          6           0       -4.531717    4.055408   -1.026176
     22          7           0        0.707469    3.567437   -0.948517
     23          1           0        1.625198    3.174427   -0.999203
     24          1           0        0.643076    4.545035   -0.746352
     25          7           0       -1.585938    3.370697   -1.068293
     26          6           0       -0.388202    2.817990   -1.142771
     27          7           0       -0.169819    1.488814   -1.413166
     28          1           0        0.780401    1.153226   -1.450739
     29          6           0       -1.168409    0.547884   -1.644114
     30          8           0       -0.863991   -0.627984   -1.879504
     31          6           0       -2.460644    1.126785   -1.567409
     32          7           0       -3.714863    0.554611   -1.730040
     33          6           0       -4.547394    1.544213   -1.551708
     34          1           0       -5.633263    1.459736   -1.606605
     35          1           0       -5.125192    4.000184   -0.223958
     36          1           0       -3.811544    4.727926   -0.860873
     37          1           0       -5.070445    4.333964   -1.820520
     38          1           0        5.693423   -0.017502   -0.863888
     39          1           0        5.709355    0.066208   -2.623833
     40          1           0        4.614163    1.097411   -1.702670
     41          1           0        3.709831   -4.259905   -1.965667
     42          6           0        3.432179   -3.206875   -1.918098
     43          8           0        1.098519   -3.630481   -1.959373
     44          6           0        2.047015   -2.847512   -1.913542
     45          1           0        0.838828   -1.197040   -1.845985
     46          7           0        1.805755   -1.489889   -1.851159
     47          8           0        2.427494    0.691549   -1.741770
     48          6           0        2.739041   -0.485210   -1.794920
     49          1           0        5.432232   -2.470154   -1.864942
     50          6           0        4.365598   -2.249581   -1.864105
     51          6           0        5.085412    0.126687   -1.744574
     52          7           0        4.052620   -0.911403   -1.803301
     53          1           0        4.855201    3.491721    3.408492
     54          1           0        3.559301    3.689948    2.437175
     55          1           0        5.066209    3.834430    1.826898
     56          1           0        2.585338   -3.088147    0.835827
     57          1           0        4.226392   -2.728618    1.132127
     58          7           0        3.279713   -2.409524    1.075528
     59          6           0        2.958622   -1.135423    1.309494
     60          6           0        3.411159    1.134187    1.862507
     61          7           0        2.131571    1.534372    1.779244
     62          1           0        0.284090    0.750500    1.363356
     63          6           0        1.343147    0.512356    1.452470
     64          7           0        1.662840   -0.764467    1.217734
     65          1           0        6.596873    1.401422    2.344169
     66          6           0        5.585567    1.052166    2.133853
     67          7           0        5.272817   -0.182332    1.824192
     68          6           0        3.897038   -0.144129    1.649539
     69          6           0        4.496098    3.344879    2.486818
     70          7           0        4.507562    1.902412    2.175121
 ---------------------------------------------------------------------

 SCF Done:  E(RwB97XD) =  -2048.74821130     A.U. after   15 cycles

 The electronic state is 1-A.
 Alpha  occ. eigenvalues --  -19.25853 -19.22277 -19.20610 -14.52474 -14.52372
 Alpha  occ. eigenvalues --  -14.48778 -14.48195 -14.48171 -14.47842 -14.46933
 Alpha  occ. eigenvalues --  -14.46644 -14.45476 -14.44177 -14.44152 -14.42018
 Alpha  occ. eigenvalues --  -14.41866 -14.40882 -14.40784 -14.40506 -14.39894
 Alpha  occ. eigenvalues --  -10.45467 -10.41235 -10.40304 -10.39856 -10.38223
 Alpha  occ. eigenvalues --  -10.37970 -10.37882 -10.37085 -10.35603 -10.35004
 Alpha  occ. eigenvalues --  -10.34861 -10.34326 -10.33840 -10.33503 -10.33333
 Alpha  occ. eigenvalues --  -10.32822 -10.32695 -10.32598 -10.31209 -10.30913
 Alpha  occ. eigenvalues --  -10.30581 -10.28094 -10.27980  -1.19426  -1.15111
 Alpha  occ. eigenvalues --   -1.13242  -1.13194  -1.10762  -1.10581  -1.09385
 Alpha  occ. eigenvalues --   -1.09162  -1.08555  -1.04752  -1.04585  -1.02517
 Alpha  occ. eigenvalues --   -1.00933  -1.00001  -0.99727  -0.98547  -0.96770
 Alpha  occ. eigenvalues --   -0.96590  -0.96380  -0.92270  -0.91139  -0.87529
 Alpha  occ. eigenvalues --   -0.85828  -0.84105  -0.83495  -0.83437  -0.82498
 Alpha  occ. eigenvalues --   -0.81853  -0.78948  -0.76952  -0.74738  -0.74603
 Alpha  occ. eigenvalues --   -0.73646  -0.73379  -0.72450  -0.70608  -0.70334
 Alpha  occ. eigenvalues --   -0.67378  -0.66770  -0.66532  -0.65846  -0.64495
 Alpha  occ. eigenvalues --   -0.64196  -0.63778  -0.62675  -0.62272  -0.61748
 Alpha  occ. eigenvalues --   -0.60509  -0.60246  -0.60143  -0.59531  -0.59279
 Alpha  occ. eigenvalues --   -0.59216  -0.58350  -0.56625  -0.56175  -0.55983
 Alpha  occ. eigenvalues --   -0.55887  -0.55270  -0.54992  -0.54439  -0.54134
 Alpha  occ. eigenvalues --   -0.53699  -0.53664  -0.53487  -0.53239  -0.52982
 Alpha  occ. eigenvalues --   -0.52704  -0.52339  -0.51351  -0.50294  -0.50189
 Alpha  occ. eigenvalues --   -0.49912  -0.49629  -0.49473  -0.48927  -0.48905
 Alpha  occ. eigenvalues --   -0.48570  -0.48429  -0.48349  -0.47662  -0.47374
 Alpha  occ. eigenvalues --   -0.46508  -0.45750  -0.45180  -0.44404  -0.43743
 Alpha  occ. eigenvalues --   -0.40684  -0.40617  -0.39430  -0.37577  -0.37491
 Alpha  occ. eigenvalues --   -0.37290  -0.37246  -0.36674  -0.36034  -0.34675
 Alpha  occ. eigenvalues --   -0.34275  -0.33923  -0.33384  -0.33036  -0.32935
 Alpha  occ. eigenvalues --   -0.32700  -0.32490  -0.32310  -0.31892  -0.30455
 Alpha  occ. eigenvalues --   -0.30049  -0.29669  -0.25606  -0.25095
 Alpha virt. eigenvalues --    0.02780   0.04103   0.07182   0.08276   0.08469
 Alpha virt. eigenvalues --    0.09323   0.09794   0.10540   0.11475   0.11992
 Alpha virt. eigenvalues --    0.12768   0.14481   0.14577   0.14897   0.15041

 Mulliken charges:
               1
     1  N   -0.313078
     2  C    0.181225
     3  C    0.054557
     4  N   -0.258380
     5  C    0.137761
     6  H    0.025080
     7  N   -0.297699
     8  C    0.135162
     9  H    0.009047
    10  N   -0.291182
    11  C    0.252991
    12  C    0.106766
    13  N   -0.054136
    14  H    0.113454
    15  H    0.082786
    16  H    0.023919
    17  H    0.031222
    18  H    0.025452
    19  N   -0.310461
    20  C    0.251421
    21  C    0.180614
    22  N   -0.116773
    23  H    0.113718
    24  H    0.116335
    25  N   -0.310355
    26  C    0.241849
    27  N   -0.149326
    28  H    0.122854
    29  C    0.191150
    30  O   -0.322404
    31  C   -0.013290
    32  N   -0.225641
    33  C    0.132280
    34  H    0.021267
    35  H    0.029964
    36  H    0.028658
    37  H    0.023987
    38  H    0.062237
    39  H    0.058918
    40  H    0.071581
    41  H    0.027512
    42  C   -0.116357
    43  O   -0.266320
    44  C    0.156475
    45  H    0.131757
    46  N   -0.113337
    47  O   -0.341330
    48  C    0.333705
    49  H    0.046726
    50  C    0.165888
    51  C    0.037311
    52  N   -0.277084
    53  H    0.034456
    54  H    0.041174
    55  H    0.027398
    56  H    0.127507
    57  H    0.114496
    58  N   -0.051310
    59  C    0.080194
    60  C    0.252451
    61  N   -0.274685
    62  H    0.039196
    63  C    0.164999
    64  N   -0.305543
    65  H    0.037056
    66  C    0.137922
    67  N   -0.268123
    68  C    0.026183
    69  C    0.179740
    70  N   -0.311587
 Sum of Mulliken charges =  -0.00000

 Dipole moment (field-independent basis, Debye):
    X=              8.2911    Y=              6.4324    Z=              1.4606  Tot=             10.5949
 Quadrupole moment (field-independent basis, Debye-Ang):
   XX=           -155.4985   YY=           -218.1978   ZZ=           -252.8614
   XY=             -0.6817   XZ=             -3.0575   YZ=             -4.4176

 Normal termination of Gaussian 16 at Tue Jan 23 16:07:11 2018.
