 Gaussian 16, Revision A.03,
 Gaussian 16:  EM64L-G16RevA.03 25-Dec-2016

 ---------------------------------------
 #p wb97xd/cc-pvdz sp scf=(maxcycles=20)
 ---------------------------------------

 ------------------
 Base pair stacking
 ------------------
 Symbolic Z-matrix:
 Charge =  0 Multiplicity = 1

                         Standard orientation:
 ---------------------------------------------------------------------
 Center     Atomic      Atomic             Coordinates (Angstroms)
 Number     Number       Type             X           Y           Z
 ---------------------------------------------------------------------
      1          7           0       -6.343893   -1.533023    0.670051
      2          6           0       -7.714473   -1.026591    0.462588
      3          6           0       -4.170967   -1.662268    0.984727
      4          7           0       -4.635834   -2.968826    0.945585
      5          6           0       -5.926332   -2.838675    0.757570
      6          1           0       -6.627664   -3.669435    0.674425
      7          7           0       -2.765712    0.225055    1.146620
      8          6           0       -3.866118    0.964339    0.973031
      9          1           0       -3.707216    2.041847    0.973085
     10          7           0       -5.127428    0.574290    0.800191
     11          6           0       -5.212245   -0.766219    0.816320
     12          6           0       -2.884295   -1.120634    1.158007
     13          7           0       -1.786992   -1.860317    1.331157
     14          1           0       -1.827795   -2.859974    1.346415
     15          1           0       -0.887235   -1.440682    1.451473
     16          1           0       -8.302736   -1.337450    1.209249
     17          1           0       -7.702017   -0.027292    0.443275
     18          1           0       -8.071286   -1.370649   -0.405914
     19          7           0       -3.088536    2.467303   -1.554808
     20          6           0       -1.757003    2.188151   -1.362036
     21          6           0       -3.730936    3.774232   -1.309946
     22          7           0        1.424042    3.210441   -0.414614
     23          1           0        2.336870    2.809413   -0.342878
     24          1           0        1.329521    4.172363   -0.156756
     25          7           0       -0.819353    3.053901   -0.920085
     26          6           0        0.373287    2.491403   -0.837480
     27          7           0        0.630133    1.181444   -1.162345
     28          1           0        1.573011    0.836330   -1.068332
     29          6           0       -0.319239    0.272641   -1.619098
     30          8           0        0.017093   -0.888017   -1.884614
     31          6           0       -1.605409    0.862397   -1.713049
     32          7           0       -2.817376    0.320154   -2.118033
     33          6           0       -3.665770    1.306213   -2.007916
     34          1           0       -4.728241    1.240623   -2.244853
     35          1           0       -4.447689    3.671348   -0.621109
     36          1           0       -3.046061    4.423693   -0.982209
     37          1           0       -4.131969    4.114804   -2.159646
     38          1           0        6.321529   -0.439512    0.226479
     39          1           0        6.625133   -0.233591   -1.496909
     40          1           0        5.396257    0.745783   -0.695628
     41          1           0        4.535820   -4.567313   -1.482074
     42          6           0        4.256335   -3.516454   -1.405740
     43          8           0        1.959936   -3.904206   -1.856624
     44          6           0        2.889825   -3.139383   -1.601416
     45          1           0        1.690321   -1.481258   -1.614608
     46          7           0        2.644469   -1.786226   -1.482955
     47          8           0        3.244540    0.373575   -1.119169
     48          6           0        3.558117   -0.800772   -1.204248
     49          1           0        6.222340   -2.812650   -0.975292
     50          6           0        5.170390   -2.578104   -1.132592
     51          6           0        5.865970   -0.226012   -0.729001
     52          7           0        4.854496   -1.243266   -1.028740
     53          1           0        4.038758    4.126084    2.225270
     54          1           0        2.910871    3.936660    1.061616
     55          1           0        4.494980    3.801079    0.692411
     56          1           0        1.647532   -2.898078    2.131974
     57          1           0        3.253880   -2.474469    2.519683
     58          7           0        2.352089   -2.190850    2.191723
     59          6           0        2.101262   -0.925474    1.849539
     60          6           0        2.646713    1.367962    1.526478
     61          7           0        1.426328    1.720097    1.089369
     62          1           0       -0.399981    0.862998    0.727994
     63          6           0        0.614480    0.664884    1.071335
     64          7           0        0.863809   -0.603280    1.413681
     65          1           0        5.744708    1.758396    2.364429
     66          6           0        4.748772    1.369281    2.150803
     67          7           0        4.387579    0.119266    2.307895
     68          6           0        3.056936    0.104695    1.915590
     69          6           0        3.801870    3.626621    1.391947
     70          7           0        3.744863    2.180511    1.680908
 ---------------------------------------------------------------------

 SCF Done:  E(RwB97XD) =  -2048.64651026     A.U. after   15 cycles

 The electronic state is 1-A.
 Alpha  occ. eigenvalues --  -19.25858 -19.21855 -19.20601 -14.52350 -14.52332
 Alpha  occ. eigenvalues --  -14.49008 -14.48589 -14.47820 -14.47750 -14.46498
 Alpha  occ. eigenvalues --  -14.45302 -14.45185 -14.43641 -14.42670 -14.42102
 Alpha  occ. eigenvalues --  -14.41847 -14.41679 -14.41246 -14.40611 -14.40431
 Alpha  occ. eigenvalues --  -10.45443 -10.40527 -10.39987 -10.39360 -10.38042
 Alpha  occ. eigenvalues --  -10.37694 -10.37689 -10.36687 -10.35755 -10.35247
 Alpha  occ. eigenvalues --  -10.34982 -10.34558 -10.34339 -10.34203 -10.33633
 Alpha  occ. eigenvalues --  -10.33396 -10.33116 -10.31881 -10.31201 -10.31022
 Alpha  occ. eigenvalues --  -10.30755 -10.28799 -10.27982  -1.19459  -1.15047
 Alpha  occ. eigenvalues --   -1.13416  -1.12902  -1.11599  -1.10542  -1.09295
 Alpha  occ. eigenvalues --   -1.09157  -1.08314  -1.05300  -1.04314  -1.02415
 Alpha  occ. eigenvalues --   -1.00996  -1.00798  -0.99740  -0.98595  -0.97250
 Alpha  occ. eigenvalues --   -0.96578  -0.96105  -0.92976  -0.90946  -0.87494
 Alpha  occ. eigenvalues --   -0.86153  -0.84217  -0.83979  -0.83483  -0.82587
 Alpha  occ. eigenvalues --   -0.82406  -0.78789  -0.76822  -0.74971  -0.74616
 Alpha  occ. eigenvalues --   -0.73468  -0.73280  -0.73217  -0.71402  -0.70345
 Alpha  occ. eigenvalues --   -0.67383  -0.66732  -0.66640  -0.66431  -0.64397
 Alpha  occ. eigenvalues --   -0.64249  -0.63680  -0.63088  -0.63001  -0.61839
 Alpha  occ. eigenvalues --   -0.60745  -0.60607  -0.60323  -0.59503  -0.59379
 Alpha  occ. eigenvalues --   -0.59323  -0.58391  -0.57371  -0.56687  -0.56535
 Alpha  occ. eigenvalues --   -0.56067  -0.55684  -0.55609  -0.55163  -0.54293
 Alpha  occ. eigenvalues --   -0.54132  -0.53527  -0.53108  -0.52875  -0.52730
 Alpha  occ. eigenvalues --   -0.52272  -0.52150  -0.52005  -0.51104  -0.50452
 Alpha  occ. eigenvalues --   -0.50041  -0.49505  -0.49356  -0.48884  -0.48775
 Alpha  occ. eigenvalues --   -0.48637  -0.48249  -0.48070  -0.47822  -0.47323
 Alpha  occ. eigenvalues --   -0.47145  -0.46396  -0.45154  -0.43797  -0.43466
 Alpha  occ. eigenvalues --   -0.41504  -0.40958  -0.39478  -0.37934  -0.37611
 Alpha  occ. eigenvalues --   -0.37486  -0.37221  -0.36498  -0.35975  -0.34628
 Alpha  occ. eigenvalues --   -0.34214  -0.33857  -0.33683  -0.33051  -0.32591
 Alpha  occ. eigenvalues --   -0.32384  -0.31843  -0.31752  -0.31160  -0.30731
 Alpha  occ. eigenvalues --   -0.29282  -0.28603  -0.26108  -0.24524
 Alpha virt. eigenvalues --    0.03191   0.04359   0.07206   0.07726   0.08539
 Alpha virt. eigenvalues --    0.09221   0.09952   0.10674   0.11050   0.11797
 Alpha virt. eigenvalues --    0.12899   0.13954   0.14015   0.14560   0.14864

 Mulliken charges:
               1
     1  N   -0.313244
     2  C    0.180935
     3  C    0.043490
     4  N   -0.261243
     5  C    0.135068
     6  H    0.027297
     7  N   -0.282632
     8  C    0.141695
     9  H    0.004836
    10  N   -0.292681
    11  C    0.247466
    12  C    0.119076
    13  N   -0.057254
    14  H    0.107229
    15  H    0.086060
    16  H    0.025784
    17  H    0.031997
    18  H    0.027408
    19  N   -0.300160
    20  C    0.231356
    21  C    0.178422
    22  N   -0.051044
    23  H    0.100357
    24  H    0.112519
    25  N   -0.286808
    26  C    0.197823
    27  N   -0.128436
    28  H    0.124262
    29  C    0.139515
    30  O   -0.318244
    31  C    0.032716
    32  N   -0.220892
    33  C    0.119387
    34  H    0.023224
    35  H    0.031890
    36  H    0.027137
    37  H    0.024547
    38  H    0.062950
    39  H    0.057803
    40  H    0.069658
    41  H    0.030986
    42  C   -0.112832
    43  O   -0.263859
    44  C    0.178223
    45  H    0.132872
    46  N   -0.131724
    47  O   -0.344602
    48  C    0.354825
    49  H    0.047321
    50  C    0.171258
    51  C    0.041399
    52  N   -0.290109
    53  H    0.040288
    54  H    0.006043
    55  H    0.034615
    56  H    0.121168
    57  H    0.116320
    58  N   -0.068331
    59  C    0.096685
    60  C    0.269172
    61  N   -0.326159
    62  H    0.034696
    63  C    0.193086
    64  N   -0.304592
    65  H    0.032227
    66  C    0.124613
    67  N   -0.258564
    68  C    0.013962
    69  C    0.179519
    70  N   -0.317774
 Sum of Mulliken charges =  -0.00000

 Dipole moment (field-independent basis, Debye):
    X=              7.3256    Y=              5.7657    Z=              3.5015  Tot=              9.9583
 Quadrupole moment (field-independent basis, Debye-Ang):
   XX=           -150.1495   YY=           -222.4885   ZZ=           -256.2909
   XY=              2.8065   XZ=              5.6160   YZ=            -12.3356

 Normal termination of Gaussian 16 at Wed Jan 24 00:48:18 2018.
