 Gaussian 16, Revision A.03,
 Gaussian 16:  EM64L-G16RevA.03 25-Dec-2016

 ---------------------------------------
 #p wb97xd/cc-pvdz sp scf=(maxcycles=20)
 ---------------------------------------

 ------------------
 Base pair stacking
 ------------------
 Symbolic Z-matrix:
 Charge =  0 Multiplicity = 1

                         Standard orientation:
 ---------------------------------------------------------------------
 Center     Atomic      Atomic             Coordinates (Angstroms)
 Number     Number       Type             X           Y           Z
 ---------------------------------------------------------------------
      1          7           0        5.817349   -1.664156   -1.039633
      2          6           0        7.207286   -1.169240   -1.005809
      3          6           0        3.624744   -1.779264   -1.168115
      4          7           0        4.072048   -3.080710   -0.992359
      5          6           0        5.375112   -2.959270   -0.921984
      6          1           0        6.068567   -3.789272   -0.783557
      7          7           0        2.238899    0.105178   -1.470230
      8          6           0        3.360268    0.833191   -1.480052
      9          1           0        3.217659    1.905097   -1.610236
     10          7           0        4.625422    0.437769   -1.353781
     11          6           0        4.689058   -0.895086   -1.199236
     12          6           0        2.336487   -1.233033   -1.312891
     13          7           0        1.218235   -1.961447   -1.302825
     14          1           0        1.243062   -2.955259   -1.189043
     15          1           0        0.318036   -1.538849   -1.408610
     16          1           0        7.730301   -1.589384   -1.747512
     17          1           0        7.211034   -0.175973   -1.117682
     18          1           0        7.626314   -1.405825   -0.129205
     19          7           0        3.661070    2.536462    1.421812
     20          6           0        2.316596    2.268481    1.329010
     21          6           0        4.290119    3.847257    1.163289
     22          7           0       -0.923666    3.330806    0.670255
     23          1           0       -1.841874    2.935782    0.660877
     24          1           0       -0.843979    4.299373    0.433086
     25          7           0        1.352040    3.150491    0.988800
     26          6           0        0.153028    2.595534    0.986520
     27          7           0       -0.085305    1.277808    1.293622
     28          1           0       -1.034886    0.939445    1.266058
     29          6           0        0.891843    0.352286    1.646423
     30          8           0        0.570481   -0.814146    1.905035
     31          6           0        2.185171    0.933785    1.653237
     32          7           0        3.422245    0.375091    1.943747
     33          6           0        4.265377    1.360410    1.793764
     34          1           0        5.343002    1.283627    1.942418
     35          1           0        4.948506    3.761347    0.416325
     36          1           0        3.585309    4.508723    0.910360
     37          1           0        4.760324    4.161502    1.987278
     38          1           0       -5.880207   -0.278903    0.322026
     39          1           0       -6.043001   -0.121563    2.069423
     40          1           0       -4.876218    0.875464    1.199985
     41          1           0       -3.989551   -4.461624    1.763159
     42          6           0       -3.710361   -3.410166    1.694485
     43          8           0       -1.387690   -3.820236    1.947801
     44          6           0       -2.330144   -3.044533    1.790144
     45          1           0       -1.122826   -1.392450    1.753866
     46          7           0       -2.086401   -1.689547    1.690850
     47          8           0       -2.699870    0.482314    1.438132
     48          6           0       -3.013129   -0.692706    1.514751
     49          1           0       -5.700035   -2.686116    1.443933
     50          6           0       -4.637357   -2.460566    1.522617
     51          6           0       -5.347971   -0.094947    1.243411
     52          7           0       -4.322241   -1.124600    1.431684
     53          1           0       -4.571505    4.000188   -2.533075
     54          1           0       -3.358379    3.936199   -1.443891
     55          1           0       -4.910294    3.889384   -0.940475
     56          1           0       -2.283528   -3.009057   -1.695769
     57          1           0       -3.909035   -2.599818   -2.012541
     58          7           0       -2.980151   -2.298363   -1.794530
     59          6           0       -2.684648   -1.005798   -1.642459
     60          6           0       -3.169310    1.323039   -1.584374
     61          7           0       -1.913261    1.698727   -1.291780
     62          1           0       -0.076922    0.850930   -0.960557
     63          6           0       -1.118060    0.635007   -1.196496
     64          7           0       -1.412130   -0.660371   -1.348456
     65          1           0       -6.317624    1.677752   -2.228180
     66          6           0       -5.313756    1.295184   -2.041520
     67          7           0       -4.984412    0.026765   -2.059275
     68          6           0       -3.627367    0.030397   -1.770956
     69          6           0       -4.277074    3.607976   -1.661602
     70          7           0       -4.264183    2.135552   -1.760633
 ---------------------------------------------------------------------

 SCF Done:  E(RwB97XD) =  -2048.74134494     A.U. after   15 cycles

 The electronic state is 1-A.
 Alpha  occ. eigenvalues --  -19.25618 -19.21776 -19.20374 -14.52648 -14.52202
 Alpha  occ. eigenvalues --  -14.48645 -14.48392 -14.48371 -14.47596 -14.46516
 Alpha  occ. eigenvalues --  -14.45752 -14.45625 -14.44309 -14.44104 -14.42424
 Alpha  occ. eigenvalues --  -14.41639 -14.41284 -14.40959 -14.40482 -14.40264
 Alpha  occ. eigenvalues --  -10.45223 -10.40709 -10.40022 -10.39896 -10.38124
 Alpha  occ. eigenvalues --  -10.37908 -10.37619 -10.37251 -10.35670 -10.35464
 Alpha  occ. eigenvalues --  -10.34647 -10.34341 -10.33966 -10.33914 -10.33258
 Alpha  occ. eigenvalues --  -10.33082 -10.32983 -10.32685 -10.30945 -10.30933
 Alpha  occ. eigenvalues --  -10.30590 -10.28440 -10.27697  -1.19232  -1.15326
 Alpha  occ. eigenvalues --   -1.12900  -1.12800  -1.11219  -1.10256  -1.09354
 Alpha  occ. eigenvalues --   -1.09076  -1.08159  -1.05034  -1.04895  -1.02231
 Alpha  occ. eigenvalues --   -1.01166  -1.00491  -0.99188  -0.98227  -0.97002
 Alpha  occ. eigenvalues --   -0.96768  -0.96240  -0.92715  -0.90837  -0.87770
 Alpha  occ. eigenvalues --   -0.86173  -0.83868  -0.83711  -0.83270  -0.82271
 Alpha  occ. eigenvalues --   -0.82155  -0.78655  -0.77138  -0.75011  -0.74227
 Alpha  occ. eigenvalues --   -0.73250  -0.73081  -0.72901  -0.71053  -0.70557
 Alpha  occ. eigenvalues --   -0.67004  -0.66904  -0.66325  -0.66256  -0.64444
 Alpha  occ. eigenvalues --   -0.64186  -0.63463  -0.62747  -0.62492  -0.61274
 Alpha  occ. eigenvalues --   -0.60765  -0.60473  -0.60435  -0.59589  -0.59303
 Alpha  occ. eigenvalues --   -0.59114  -0.57882  -0.56791  -0.56423  -0.56166
 Alpha  occ. eigenvalues --   -0.55786  -0.55641  -0.55420  -0.54574  -0.54246
 Alpha  occ. eigenvalues --   -0.53955  -0.53417  -0.53337  -0.53169  -0.52685
 Alpha  occ. eigenvalues --   -0.52590  -0.52089  -0.51746  -0.50743  -0.50184
 Alpha  occ. eigenvalues --   -0.49891  -0.49749  -0.49308  -0.48996  -0.48836
 Alpha  occ. eigenvalues --   -0.48529  -0.48138  -0.47969  -0.47286  -0.47104
 Alpha  occ. eigenvalues --   -0.46850  -0.45585  -0.44884  -0.44657  -0.43659
 Alpha  occ. eigenvalues --   -0.41096  -0.40979  -0.39273  -0.37869  -0.37791
 Alpha  occ. eigenvalues --   -0.37213  -0.36960  -0.36802  -0.35850  -0.34729
 Alpha  occ. eigenvalues --   -0.34449  -0.33596  -0.33496  -0.32946  -0.32680
 Alpha  occ. eigenvalues --   -0.32396  -0.32176  -0.31886  -0.31591  -0.30857
 Alpha  occ. eigenvalues --   -0.30472  -0.29915  -0.25862  -0.24690
 Alpha virt. eigenvalues --    0.03237   0.03847   0.07050   0.07860   0.08633
 Alpha virt. eigenvalues --    0.09545   0.10068   0.10303   0.11169   0.11783
 Alpha virt. eigenvalues --    0.12551   0.14040   0.14364   0.14919   0.15173

 Mulliken charges:
               1
     1  N   -0.313915
     2  C    0.181160
     3  C    0.053937
     4  N   -0.261041
     5  C    0.136667
     6  H    0.026414
     7  N   -0.290281
     8  C    0.139337
     9  H    0.009838
    10  N   -0.288644
    11  C    0.254611
    12  C    0.110204
    13  N   -0.057018
    14  H    0.109120
    15  H    0.083672
    16  H    0.024881
    17  H    0.030660
    18  H    0.027209
    19  N   -0.299773
    20  C    0.232849
    21  C    0.180066
    22  N   -0.083423
    23  H    0.111713
    24  H    0.110689
    25  N   -0.303151
    26  C    0.207190
    27  N   -0.146612
    28  H    0.127727
    29  C    0.173931
    30  O   -0.323350
    31  C    0.000773
    32  N   -0.224363
    33  C    0.132277
    34  H    0.018320
    35  H    0.029951
    36  H    0.027030
    37  H    0.023190
    38  H    0.063129
    39  H    0.057981
    40  H    0.068103
    41  H    0.028904
    42  C   -0.112031
    43  O   -0.264823
    44  C    0.170170
    45  H    0.132080
    46  N   -0.122573
    47  O   -0.339101
    48  C    0.336579
    49  H    0.046657
    50  C    0.166280
    51  C    0.037383
    52  N   -0.283566
    53  H    0.036973
    54  H    0.033616
    55  H    0.029127
    56  H    0.123990
    57  H    0.116990
    58  N   -0.060254
    59  C    0.083878
    60  C    0.259546
    61  N   -0.286156
    62  H    0.050146
    63  C    0.153314
    64  N   -0.298466
    65  H    0.036708
    66  C    0.133540
    67  N   -0.262796
    68  C    0.023793
    69  C    0.179257
    70  N   -0.310221
 Sum of Mulliken charges =  -0.00000

 Dipole moment (field-independent basis, Debye):
    X=             -7.9718    Y=              6.0257    Z=             -2.9249  Tot=             10.4122
 Quadrupole moment (field-independent basis, Debye-Ang):
   XX=           -153.1016   YY=           -220.3774   ZZ=           -255.6845
   XY=             -0.9602   XZ=             -0.5231   YZ=             10.1205

 Normal termination of Gaussian 16 at Tue Jan 23 15:09:18 2018.
