 Gaussian 16, Revision A.03,
 Gaussian 16:  EM64L-G16RevA.03 25-Dec-2016

 ---------------------------------------
 #p wb97xd/cc-pvdz sp scf=(maxcycles=20)
 ---------------------------------------

 ------------------
 Base pair stacking
 ------------------
 Symbolic Z-matrix:
 Charge =  0 Multiplicity = 1

                         Standard orientation:
 ---------------------------------------------------------------------
 Center     Atomic      Atomic             Coordinates (Angstroms)
 Number     Number       Type             X           Y           Z
 ---------------------------------------------------------------------
      1          7           0        4.232609   -2.316362   -1.826694
      2          6           0        5.587251   -2.020905   -2.332323
      3          6           0        2.082833   -2.208867   -1.374784
      4          7           0        2.546972   -3.372538   -0.778821
      5          6           0        3.823558   -3.390729   -1.074933
      6          1           0        4.520175   -4.171350   -0.767855
      7          7           0        0.686307   -0.454329   -2.105712
      8          6           0        1.772865    0.067323   -2.684380
      9          1           0        1.612207    1.004465   -3.215610
     10          7           0        3.022203   -0.392693   -2.705250
     11          6           0        3.110376   -1.547262   -2.024363
     12          6           0        0.807908   -1.616713   -1.428102
     13          7           0       -0.275570   -2.139013   -0.849783
     14          1           0       -0.232030   -2.997755   -0.338042
     15          1           0       -1.167254   -1.689982   -0.908290
     16          1           0        5.891349   -2.763931   -2.928659
     17          1           0        5.571761   -1.165311   -2.848891
     18          1           0        6.220407   -1.932606   -1.563359
     19          7           0        5.205825    2.550177    0.527963
     20          6           0        3.863934    2.378839    0.768850
     21          6           0        5.853495    3.829910    0.176534
     22          7           0        0.658502    3.694510    1.005396
     23          1           0       -0.261488    3.362959    1.212604
     24          1           0        0.753965    4.668733    0.799267
     25          7           0        2.919213    3.343030    0.725321
     26          6           0        1.717221    2.870488    1.003775
     27          7           0        1.458101    1.554720    1.302283
     28          1           0        0.507844    1.282827    1.502452
     29          6           0        2.414610    0.545569    1.352822
     30          8           0        2.075423   -0.610941    1.632405
     31          6           0        3.710867    1.037959    1.055905
     32          7           0        4.932084    0.380707    0.996439
     33          6           0        5.787270    1.315181    0.680789
     34          1           0        6.857943    1.157454    0.546430
     35          1           0        6.294478    3.748015   -0.716565
     36          1           0        5.163457    4.551626    0.141311
     37          1           0        6.538982    4.059060    0.866747
     38          1           0       -4.501319    0.452657    1.770445
     39          1           0       -4.207637    0.509004    3.506878
     40          1           0       -3.219639    1.479339    2.414329
     41          1           0       -2.653185   -3.929963    2.494082
     42          6           0       -2.316325   -2.897214    2.403587
     43          8           0       -0.045172   -3.476465    2.038269
     44          6           0       -0.931373   -2.631217    2.160717
     45          1           0        0.357375   -1.064315    1.891905
     46          7           0       -0.611935   -1.291925    2.063234
     47          8           0       -1.092079    0.927665    2.072399
     48          6           0       -1.469764   -0.226349    2.173734
     49          1           0       -4.240235   -2.027708    2.700754
     50          6           0       -3.177163   -1.878937    2.516125
     51          6           0       -3.742064    0.541739    2.533108
     52          7           0       -2.788311   -0.563871    2.407688
     53          1           0       -6.121623    3.470081   -3.071825
     54          1           0       -4.664646    3.705133   -2.376079
     55          1           0       -6.028908    4.052214   -1.550013
     56          1           0       -3.767590   -2.826661    0.070640
     57          1           0       -5.414648   -2.387554    0.003600
     58          7           0       -4.458055   -2.137906   -0.150762
     59          6           0       -4.119304   -0.939492   -0.630578
     60          6           0       -4.546896    1.255007   -1.444869
     61          7           0       -3.254277    1.562714   -1.642099
     62          1           0       -1.404685    0.706202   -1.427616
     63          6           0       -2.473383    0.540438   -1.298498
     64          7           0       -2.810754   -0.660658   -0.817732
     65          1           0       -7.749538    1.695986   -1.417103
     66          6           0       -6.736098    1.303407   -1.328973
     67          7           0       -6.436503    0.105875   -0.888695
     68          6           0       -5.051530    0.062171   -0.956998
     69          6           0       -5.611612    3.430100   -2.212593
     70          7           0       -5.640833    2.052796   -1.683265
 ---------------------------------------------------------------------

 SCF Done:  E(RwB97XD) =  -2048.74332425     A.U. after   15 cycles

 The electronic state is 1-A.
 Alpha  occ. eigenvalues --  -19.25694 -19.21908 -19.20835 -14.52388 -14.52308
 Alpha  occ. eigenvalues --  -14.49252 -14.48721 -14.47649 -14.47578 -14.47128
 Alpha  occ. eigenvalues --  -14.46955 -14.45377 -14.44781 -14.44516 -14.42328
 Alpha  occ. eigenvalues --  -14.42124 -14.41472 -14.40409 -14.40171 -14.40002
 Alpha  occ. eigenvalues --  -10.45290 -10.41549 -10.40316 -10.40022 -10.38490
 Alpha  occ. eigenvalues --  -10.38000 -10.37959 -10.37318 -10.36009 -10.35058
 Alpha  occ. eigenvalues --  -10.34894 -10.34756 -10.33863 -10.33730 -10.32985
 Alpha  occ. eigenvalues --  -10.32867 -10.32592 -10.32545 -10.31321 -10.31073
 Alpha  occ. eigenvalues --  -10.29849 -10.28518 -10.27771  -1.19229  -1.15197
 Alpha  occ. eigenvalues --   -1.13493  -1.12961  -1.10989  -1.10305  -1.09722
 Alpha  occ. eigenvalues --   -1.09142  -1.08840  -1.05162  -1.04610  -1.02271
 Alpha  occ. eigenvalues --   -1.00992  -1.00052  -1.00034  -0.98882  -0.97175
 Alpha  occ. eigenvalues --   -0.97029  -0.95965  -0.92316  -0.91103  -0.87717
 Alpha  occ. eigenvalues --   -0.85862  -0.84534  -0.83423  -0.83048  -0.82897
 Alpha  occ. eigenvalues --   -0.81399  -0.78813  -0.77232  -0.75021  -0.74992
 Alpha  occ. eigenvalues --   -0.73939  -0.73232  -0.72286  -0.70635  -0.70392
 Alpha  occ. eigenvalues --   -0.67710  -0.67060  -0.66463  -0.65699  -0.64663
 Alpha  occ. eigenvalues --   -0.64400  -0.63894  -0.62912  -0.62153  -0.62098
 Alpha  occ. eigenvalues --   -0.60750  -0.60333  -0.59925  -0.59527  -0.59329
 Alpha  occ. eigenvalues --   -0.59180  -0.58659  -0.57016  -0.56014  -0.55993
 Alpha  occ. eigenvalues --   -0.55319  -0.55238  -0.55103  -0.54668  -0.54375
 Alpha  occ. eigenvalues --   -0.53828  -0.53743  -0.53686  -0.53283  -0.52896
 Alpha  occ. eigenvalues --   -0.52814  -0.52281  -0.50922  -0.50469  -0.50089
 Alpha  occ. eigenvalues --   -0.49891  -0.49586  -0.49518  -0.49312  -0.49047
 Alpha  occ. eigenvalues --   -0.48525  -0.48272  -0.48182  -0.48027  -0.47442
 Alpha  occ. eigenvalues --   -0.46234  -0.45759  -0.45521  -0.44435  -0.43618
 Alpha  occ. eigenvalues --   -0.40751  -0.40657  -0.39359  -0.37940  -0.37700
 Alpha  occ. eigenvalues --   -0.37672  -0.37595  -0.36373  -0.35723  -0.35043
 Alpha  occ. eigenvalues --   -0.34558  -0.34319  -0.33270  -0.32954  -0.32940
 Alpha  occ. eigenvalues --   -0.32740  -0.32557  -0.32175  -0.32005  -0.30260
 Alpha  occ. eigenvalues --   -0.30157  -0.29866  -0.25942  -0.25190
 Alpha virt. eigenvalues --    0.02928   0.04011   0.06817   0.08320   0.08744
 Alpha virt. eigenvalues --    0.08910   0.09473   0.10488   0.11377   0.11562
 Alpha virt. eigenvalues --    0.13700   0.14114   0.14369   0.15141   0.15277

 Mulliken charges:
               1
     1  N   -0.310623
     2  C    0.182861
     3  C    0.055036
     4  N   -0.249729
     5  C    0.147133
     6  H    0.026337
     7  N   -0.300541
     8  C    0.130134
     9  H    0.009032
    10  N   -0.285168
    11  C    0.253634
    12  C    0.088069
    13  N   -0.069799
    14  H    0.114726
    15  H    0.082683
    16  H    0.019932
    17  H    0.029867
    18  H    0.030084
    19  N   -0.311044
    20  C    0.254608
    21  C    0.180977
    22  N   -0.124043
    23  H    0.118702
    24  H    0.119043
    25  N   -0.312539
    26  C    0.250213
    27  N   -0.150655
    28  H    0.121123
    29  C    0.198791
    30  O   -0.318801
    31  C   -0.014937
    32  N   -0.232336
    33  C    0.124943
    34  H    0.023546
    35  H    0.027936
    36  H    0.030552
    37  H    0.025637
    38  H    0.064619
    39  H    0.058765
    40  H    0.075558
    41  H    0.026815
    42  C   -0.127013
    43  O   -0.259124
    44  C    0.159391
    45  H    0.135188
    46  N   -0.120568
    47  O   -0.352761
    48  C    0.356038
    49  H    0.040251
    50  C    0.172736
    51  C    0.038523
    52  N   -0.278774
    53  H    0.033823
    54  H    0.042573
    55  H    0.029460
    56  H    0.115696
    57  H    0.117977
    58  N   -0.065928
    59  C    0.089617
    60  C    0.247860
    61  N   -0.270731
    62  H    0.035268
    63  C    0.177387
    64  N   -0.316945
    65  H    0.039086
    66  C    0.141081
    67  N   -0.263041
    68  C    0.023196
    69  C    0.180266
    70  N   -0.311672
 Sum of Mulliken charges =  -0.00000

 Dipole moment (field-independent basis, Debye):
    X=             -7.8672    Y=              7.3971    Z=              0.2805  Tot=             10.8022
 Quadrupole moment (field-independent basis, Debye-Ang):
   XX=           -165.1140   YY=           -217.7519   ZZ=           -247.3379
   XY=              3.1895   XZ=            -16.6362   YZ=              1.4513

 Normal termination of Gaussian 16 at Wed Jan 24 03:42:14 2018.
