 Gaussian 16, Revision A.03,
 Gaussian 16:  EM64L-G16RevA.03 25-Dec-2016

 ---------------------------------------
 #p wb97xd/cc-pvdz sp scf=(maxcycles=20)
 ---------------------------------------

 ------------------
 Base pair stacking
 ------------------
 Symbolic Z-matrix:
 Charge =  0 Multiplicity = 1

                         Standard orientation:
 ---------------------------------------------------------------------
 Center     Atomic      Atomic             Coordinates (Angstroms)
 Number     Number       Type             X           Y           Z
 ---------------------------------------------------------------------
      1          7           0       -5.842304   -1.718739    1.018242
      2          6           0       -7.234907   -1.233680    1.076244
      3          6           0       -3.646991   -1.833542    1.087067
      4          7           0       -4.091835   -3.104705    0.753896
      5          6           0       -5.396625   -2.984661    0.725771
      6          1           0       -6.088956   -3.794920    0.495321
      7          7           0       -2.263904    0.006265    1.601968
      8          6           0       -3.388179    0.718795    1.727945
      9          1           0       -3.247849    1.766002    1.992398
     10          7           0       -4.653841    0.333781    1.576997
     11          6           0       -4.714506   -0.968483    1.253162
     12          6           0       -2.358548   -1.301194    1.275358
     13          7           0       -1.237404   -2.014125    1.149141
     14          1           0       -1.259988   -2.985143    0.908686
     15          1           0       -0.337160   -1.602159    1.290568
     16          1           0       -7.740507   -1.749660    1.767845
     17          1           0       -7.240921   -0.263152    1.315319
     18          1           0       -7.670901   -1.358384    0.184973
     19          7           0       -3.621606    2.640595   -1.443824
     20          6           0       -2.276813    2.367371   -1.373707
     21          6           0       -4.237317    3.962733   -1.212392
     22          7           0        0.983650    3.429878   -0.823954
     23          1           0        1.899662    3.029679   -0.823330
     24          1           0        0.914791    4.405906   -0.615752
     25          7           0       -1.299809    3.253685   -1.083939
     26          6           0       -0.104099    2.691679   -1.091835
     27          7           0        0.119833    1.363497   -1.362553
     28          1           0        1.067940    1.020300   -1.346261
     29          6           0       -0.870296    0.433379   -1.663225
     30          8           0       -0.561398   -0.742584   -1.892202
     31          6           0       -2.160244    1.022347   -1.658520
     32          7           0       -3.406771    0.462426   -1.902542
     33          6           0       -4.240807    1.457164   -1.764337
     34          1           0       -5.322010    1.382393   -1.885533
     35          1           0       -4.878586    3.904454   -0.448074
     36          1           0       -3.523213    4.627471   -0.996876
     37          1           0       -4.724879    4.253781   -2.034813
     38          1           0        5.927249   -0.197608   -0.476466
     39          1           0        6.050129   -0.096362   -2.231260
     40          1           0        4.909370    0.934721   -1.367031
     41          1           0        3.980791   -4.411870   -1.740530
     42          6           0        3.708995   -3.357077   -1.698706
     43          8           0        1.378857   -3.760564   -1.885154
     44          6           0        2.328943   -2.986118   -1.773944
     45          1           0        1.131796   -1.326291   -1.762004
     46          7           0        2.094953   -1.627196   -1.711920
     47          8           0        2.725948    0.547714   -1.542250
     48          6           0        3.030948   -0.631036   -1.588908
     49          1           0        5.707873   -2.637796   -1.517235
     50          6           0        4.644897   -2.408270   -1.578425
     51          6           0        5.374694   -0.039474   -1.390654
     52          7           0        4.339263   -1.068181   -1.522511
     53          1           0        4.548991    3.781128    3.022220
     54          1           0        3.313875    3.849210    1.958290
     55          1           0        4.855241    3.878885    1.422202
     56          1           0        2.276548   -3.078234    1.333822
     57          1           0        3.906356   -2.701442    1.668252
     58          7           0        2.971780   -2.381143    1.509491
     59          6           0        2.667232   -1.081940    1.531296
     60          6           0        3.139833    1.238418    1.764359
     61          7           0        1.876268    1.639559    1.547753
     62          1           0        0.037392    0.828218    1.146652
     63          6           0        1.084180    0.591259    1.331969
     64          7           0        1.387311   -0.710741    1.309721
     65          1           0        6.299120    1.530050    2.385625
     66          6           0        5.293392    1.167448    2.171249
     67          7           0        4.970341   -0.095044    2.031853
     68          6           0        3.607605   -0.064124    1.773521
     69          6           0        4.238391    3.502341    2.113487
     70          7           0        4.234351    2.029371    2.022063
 ---------------------------------------------------------------------

 SCF Done:  E(RwB97XD) =  -2048.74984256     A.U. after   15 cycles

 The electronic state is 1-A.
 Alpha  occ. eigenvalues --  -19.25765 -19.22022 -19.20498 -14.52432 -14.52338
 Alpha  occ. eigenvalues --  -14.48591 -14.48495 -14.48165 -14.47729 -14.46753
 Alpha  occ. eigenvalues --  -14.46323 -14.45487 -14.44145 -14.44114 -14.42161
 Alpha  occ. eigenvalues --  -14.41851 -14.41112 -14.40773 -14.40671 -14.40099
 Alpha  occ. eigenvalues --  -10.45366 -10.40996 -10.40106 -10.39831 -10.38073
 Alpha  occ. eigenvalues --  -10.37980 -10.37759 -10.37089 -10.35575 -10.35265
 Alpha  occ. eigenvalues --  -10.34783 -10.34129 -10.34033 -10.33804 -10.33151
 Alpha  occ. eigenvalues --  -10.33094 -10.32933 -10.32561 -10.31097 -10.30820
 Alpha  occ. eigenvalues --  -10.30742 -10.28263 -10.27901  -1.19341  -1.15138
 Alpha  occ. eigenvalues --   -1.13054  -1.13016  -1.11061  -1.10418  -1.09214
 Alpha  occ. eigenvalues --   -1.09166  -1.08367  -1.04845  -1.04711  -1.02383
 Alpha  occ. eigenvalues --   -1.00966  -1.00279  -0.99489  -0.98389  -0.96830
 Alpha  occ. eigenvalues --   -0.96593  -0.96411  -0.92517  -0.90986  -0.87565
 Alpha  occ. eigenvalues --   -0.85928  -0.83912  -0.83709  -0.83389  -0.82323
 Alpha  occ. eigenvalues --   -0.82117  -0.78796  -0.76953  -0.74760  -0.74417
 Alpha  occ. eigenvalues --   -0.73460  -0.73242  -0.72718  -0.70870  -0.70349
 Alpha  occ. eigenvalues --   -0.67173  -0.66747  -0.66416  -0.66122  -0.64337
 Alpha  occ. eigenvalues --   -0.64213  -0.63619  -0.62566  -0.62546  -0.61529
 Alpha  occ. eigenvalues --   -0.60538  -0.60284  -0.60247  -0.59421  -0.59370
 Alpha  occ. eigenvalues --   -0.59165  -0.58121  -0.56601  -0.56369  -0.56125
 Alpha  occ. eigenvalues --   -0.55870  -0.55437  -0.55202  -0.54451  -0.54199
 Alpha  occ. eigenvalues --   -0.53866  -0.53511  -0.53350  -0.53116  -0.52806
 Alpha  occ. eigenvalues --   -0.52652  -0.52218  -0.51602  -0.50548  -0.50062
 Alpha  occ. eigenvalues --   -0.50036  -0.49714  -0.49346  -0.48901  -0.48724
 Alpha  occ. eigenvalues --   -0.48656  -0.48352  -0.48153  -0.47483  -0.47249
 Alpha  occ. eigenvalues --   -0.46750  -0.45619  -0.44898  -0.44628  -0.43791
 Alpha  occ. eigenvalues --   -0.40927  -0.40714  -0.39350  -0.37666  -0.37563
 Alpha  occ. eigenvalues --   -0.37131  -0.37038  -0.36927  -0.35934  -0.34694
 Alpha  occ. eigenvalues --   -0.34315  -0.33645  -0.33304  -0.33165  -0.33081
 Alpha  occ. eigenvalues --   -0.32546  -0.32300  -0.32046  -0.31736  -0.30717
 Alpha  occ. eigenvalues --   -0.30295  -0.29796  -0.25720  -0.24981
 Alpha virt. eigenvalues --    0.03071   0.04017   0.07228   0.08081   0.08510
 Alpha virt. eigenvalues --    0.09434   0.09942   0.10488   0.11250   0.11823
 Alpha virt. eigenvalues --    0.12581   0.14249   0.14495   0.14785   0.15190

 Mulliken charges:
               1
     1  N   -0.313394
     2  C    0.181036
     3  C    0.053927
     4  N   -0.259916
     5  C    0.136239
     6  H    0.025848
     7  N   -0.292730
     8  C    0.136163
     9  H    0.009459
    10  N   -0.290727
    11  C    0.251493
    12  C    0.111497
    13  N   -0.054982
    14  H    0.110847
    15  H    0.084222
    16  H    0.024714
    17  H    0.031292
    18  H    0.026134
    19  N   -0.307706
    20  C    0.246449
    21  C    0.180366
    22  N   -0.102624
    23  H    0.111779
    24  H    0.113548
    25  N   -0.307077
    26  C    0.227466
    27  N   -0.146042
    28  H    0.125279
    29  C    0.178683
    30  O   -0.322717
    31  C   -0.004823
    32  N   -0.225889
    33  C    0.133109
    34  H    0.020712
    35  H    0.030400
    36  H    0.027774
    37  H    0.023417
    38  H    0.062407
    39  H    0.058361
    40  H    0.069834
    41  H    0.028552
    42  C   -0.111735
    43  O   -0.266060
    44  C    0.162512
    45  H    0.132766
    46  N   -0.118854
    47  O   -0.340546
    48  C    0.335871
    49  H    0.047378
    50  C    0.166022
    51  C    0.037346
    52  N   -0.281543
    53  H    0.035612
    54  H    0.038128
    55  H    0.027282
    56  H    0.127071
    57  H    0.116098
    58  N   -0.057858
    59  C    0.079285
    60  C    0.252401
    61  N   -0.275447
    62  H    0.042863
    63  C    0.157317
    64  N   -0.300216
    65  H    0.036354
    66  C    0.136672
    67  N   -0.265822
    68  C    0.027970
    69  C    0.178451
    70  N   -0.311697
 Sum of Mulliken charges =  -0.00000

 Dipole moment (field-independent basis, Debye):
    X=              8.1040    Y=              6.1425    Z=              2.2642  Tot=             10.4179
 Quadrupole moment (field-independent basis, Debye-Ang):
   XX=           -153.3821   YY=           -219.1883   ZZ=           -254.4200
   XY=              0.5235   XZ=              0.1856   YZ=             -7.6284

 Normal termination of Gaussian 16 at Tue Jan 23 13:01:51 2018.
