 Gaussian 16, Revision A.03,
 Gaussian 16:  EM64L-G16RevA.03 25-Dec-2016

 ---------------------------------------
 #p wb97xd/cc-pvdz sp scf=(maxcycles=20)
 ---------------------------------------

 ------------------
 Base pair stacking
 ------------------
 Symbolic Z-matrix:
 Charge =  0 Multiplicity = 1

                         Standard orientation:
 ---------------------------------------------------------------------
 Center     Atomic      Atomic             Coordinates (Angstroms)
 Number     Number       Type             X           Y           Z
 ---------------------------------------------------------------------
      1          7           0       -6.397697   -1.565225    0.633566
      2          6           0       -7.778885   -1.051636    0.552740
      3          6           0       -4.215883   -1.714124    0.867774
      4          7           0       -4.666927   -3.000041    0.607592
      5          6           0       -5.963336   -2.858871    0.476902
      6          1           0       -6.657255   -3.672541    0.263940
      7          7           0       -2.828097    0.136217    1.329554
      8          6           0       -3.940950    0.877158    1.317045
      9          1           0       -3.794198    1.939828    1.505317
     10          7           0       -5.201934    0.504239    1.107869
     11          6           0       -5.271247   -0.818926    0.886868
     12          6           0       -2.931231   -1.191746    1.103780
     13          7           0       -1.821496   -1.933038    1.115861
     14          1           0       -1.850658   -2.919984    0.953690
     15          1           0       -0.923622   -1.527366    1.287341
     16          1           0       -8.343633   -1.499586    1.245985
     17          1           0       -7.778160   -0.064768    0.711540
     18          1           0       -8.154704   -1.241293   -0.354333
     19          7           0       -3.002370    2.602664   -1.628810
     20          6           0       -1.669815    2.312613   -1.460769
     21          6           0       -3.616317    3.932998   -1.444515
     22          7           0        1.555388    3.335048   -0.676918
     23          1           0        2.463748    2.923306   -0.609169
     24          1           0        1.484053    4.312334   -0.475572
     25          7           0       -0.705210    3.187155   -1.101948
     26          6           0        0.480625    2.610065   -1.022160
     27          7           0        0.706659    1.278539   -1.274100
     28          1           0        1.646613    0.923431   -1.188489
     29          6           0       -0.270802    0.360344   -1.644708
     30          8           0        0.038862   -0.819952   -1.849048
     31          6           0       -1.550058    0.965583   -1.734553
     32          7           0       -2.782614    0.420925   -2.067786
     33          6           0       -3.611710    1.426435   -1.991894
     34          1           0       -4.682113    1.365071   -2.191252
     35          1           0       -4.312123    3.884569   -0.728752
     36          1           0       -2.911329    4.589137   -1.178555
     37          1           0       -4.039079    4.228331   -2.300592
     38          1           0        6.413921   -0.353871    0.033832
     39          1           0        6.665263   -0.258162   -1.707518
     40          1           0        5.477985    0.789231   -0.929877
     41          1           0        4.510764   -4.546027   -1.362725
     42          6           0        4.250153   -3.487781   -1.342175
     43          8           0        1.934754   -3.862201   -1.696955
     44          6           0        2.884062   -3.099579   -1.518015
     45          1           0        1.710524   -1.424712   -1.595347
     46          7           0        2.663570   -1.737668   -1.474982
     47          8           0        3.308306    0.429471   -1.262811
     48          6           0        3.600796   -0.753154   -1.285598
     49          1           0        6.239588   -2.793435   -1.016864
     50          6           0        5.186891   -2.550624   -1.155459
     51          6           0        5.931318   -0.190824   -0.918307
     52          7           0        4.895147   -1.206655   -1.123706
     53          1           0        3.958354    3.889911    2.922082
     54          1           0        2.802227    3.892747    1.770791
     55          1           0        4.377416    3.849987    1.345308
     56          1           0        1.644470   -3.042440    1.635991
     57          1           0        3.255666   -2.669281    2.054198
     58          7           0        2.342379   -2.346102    1.803849
     59          6           0        2.068391   -1.044146    1.698800
     60          6           0        2.579326    1.278484    1.776624
     61          7           0        1.343910    1.683478    1.438773
     62          1           0       -0.481597    0.875647    0.974507
     63          6           0        0.543766    0.635642    1.252521
     64          7           0        0.816289   -0.669099    1.357257
     65          1           0        5.693861    1.562410    2.595927
     66          6           0        4.697032    1.201860    2.340411
     67          7           0        4.354184   -0.061700    2.280854
     68          6           0        3.013865   -0.027227    1.924370
     69          6           0        3.705093    3.542984    2.019029
     70          7           0        3.671984    2.067809    2.046913
 ---------------------------------------------------------------------

 SCF Done:  E(RwB97XD) =  -2048.73536418     A.U. after   15 cycles

 The electronic state is 1-A.
 Alpha  occ. eigenvalues --  -19.25903 -19.22062 -19.20613 -14.52430 -14.52091
 Alpha  occ. eigenvalues --  -14.48845 -14.48668 -14.47879 -14.47544 -14.46759
 Alpha  occ. eigenvalues --  -14.46407 -14.45084 -14.43587 -14.43180 -14.42354
 Alpha  occ. eigenvalues --  -14.42047 -14.41491 -14.41048 -14.40686 -14.40261
 Alpha  occ. eigenvalues --  -10.45511 -10.41030 -10.40174 -10.39278 -10.38154
 Alpha  occ. eigenvalues --  -10.37842 -10.37602 -10.36598 -10.35517 -10.35135
 Alpha  occ. eigenvalues --  -10.35088 -10.34279 -10.34160 -10.34012 -10.33441
 Alpha  occ. eigenvalues --  -10.33216 -10.33159 -10.31995 -10.31151 -10.31069
 Alpha  occ. eigenvalues --  -10.30768 -10.28606 -10.28032  -1.19471  -1.14750
 Alpha  occ. eigenvalues --   -1.13211  -1.13075  -1.11422  -1.10515  -1.09316
 Alpha  occ. eigenvalues --   -1.08716  -1.08423  -1.05079  -1.04188  -1.02511
 Alpha  occ. eigenvalues --   -1.00613  -1.00543  -0.99679  -0.98515  -0.97060
 Alpha  occ. eigenvalues --   -0.96490  -0.96164  -0.92744  -0.91069  -0.87205
 Alpha  occ. eigenvalues --   -0.85702  -0.84030  -0.84010  -0.83566  -0.82408
 Alpha  occ. eigenvalues --   -0.82402  -0.78887  -0.76534  -0.74568  -0.74307
 Alpha  occ. eigenvalues --   -0.73610  -0.73368  -0.72998  -0.71163  -0.69961
 Alpha  occ. eigenvalues --   -0.67320  -0.66557  -0.66410  -0.66305  -0.64441
 Alpha  occ. eigenvalues --   -0.63842  -0.63720  -0.62816  -0.62723  -0.61676
 Alpha  occ. eigenvalues --   -0.60418  -0.60228  -0.59996  -0.59509  -0.59236
 Alpha  occ. eigenvalues --   -0.59105  -0.58250  -0.56854  -0.56570  -0.56428
 Alpha  occ. eigenvalues --   -0.55990  -0.55536  -0.55242  -0.54774  -0.54348
 Alpha  occ. eigenvalues --   -0.53795  -0.53603  -0.53080  -0.52907  -0.52779
 Alpha  occ. eigenvalues --   -0.52369  -0.52281  -0.51859  -0.50858  -0.50303
 Alpha  occ. eigenvalues --   -0.50111  -0.49435  -0.49422  -0.48817  -0.48782
 Alpha  occ. eigenvalues --   -0.48696  -0.48339  -0.48148  -0.47833  -0.47371
 Alpha  occ. eigenvalues --   -0.47036  -0.45694  -0.45061  -0.44061  -0.43764
 Alpha  occ. eigenvalues --   -0.41265  -0.40374  -0.39467  -0.37537  -0.37346
 Alpha  occ. eigenvalues --   -0.37266  -0.37218  -0.36682  -0.35923  -0.34430
 Alpha  occ. eigenvalues --   -0.34088  -0.33659  -0.33510  -0.33223  -0.32745
 Alpha  occ. eigenvalues --   -0.32619  -0.32347  -0.31982  -0.31773  -0.30975
 Alpha  occ. eigenvalues --   -0.30494  -0.29156  -0.25924  -0.25237
 Alpha virt. eigenvalues --    0.02993   0.04615   0.07360   0.07895   0.08782
 Alpha virt. eigenvalues --    0.09266   0.09588   0.10848   0.11130   0.11526
 Alpha virt. eigenvalues --    0.12777   0.14138   0.14300   0.14613   0.14878

 Mulliken charges:
               1
     1  N   -0.312271
     2  C    0.180793
     3  C    0.044214
     4  N   -0.259989
     5  C    0.134571
     6  H    0.026736
     7  N   -0.287869
     8  C    0.132237
     9  H    0.009818
    10  N   -0.291708
    11  C    0.243792
    12  C    0.120141
    13  N   -0.054291
    14  H    0.109049
    15  H    0.087912
    16  H    0.025620
    17  H    0.032774
    18  H    0.026324
    19  N   -0.308533
    20  C    0.244350
    21  C    0.180058
    22  N   -0.090759
    23  H    0.111602
    24  H    0.114610
    25  N   -0.297784
    26  C    0.212743
    27  N   -0.126420
    28  H    0.116308
    29  C    0.151448
    30  O   -0.319050
    31  C    0.016196
    32  N   -0.224955
    33  C    0.126847
    34  H    0.025500
    35  H    0.030550
    36  H    0.027478
    37  H    0.024004
    38  H    0.062668
    39  H    0.058610
    40  H    0.070900
    41  H    0.030411
    42  C   -0.114808
    43  O   -0.266618
    44  C    0.170213
    45  H    0.134278
    46  N   -0.127905
    47  O   -0.346633
    48  C    0.351839
    49  H    0.048090
    50  C    0.172946
    51  C    0.040252
    52  N   -0.287969
    53  H    0.037289
    54  H    0.032269
    55  H    0.026344
    56  H    0.125622
    57  H    0.115262
    58  N   -0.064475
    59  C    0.092497
    60  C    0.233503
    61  N   -0.270833
    62  H    0.040737
    63  C    0.170252
    64  N   -0.300703
    65  H    0.032491
    66  C    0.132498
    67  N   -0.263425
    68  C    0.024088
    69  C    0.170748
    70  N   -0.312486
 Sum of Mulliken charges =  -0.00000

 Dipole moment (field-independent basis, Debye):
    X=              7.7552    Y=              5.8666    Z=              2.7004  Tot=             10.0922
 Quadrupole moment (field-independent basis, Debye-Ang):
   XX=           -149.9111   YY=           -220.4329   ZZ=           -254.4407
   XY=              2.6445   XZ=              6.6657   YZ=             -9.3227

 Normal termination of Gaussian 16 at Wed Jan 24 05:04:27 2018.
