 Gaussian 16, Revision A.03,
 Gaussian 16:  EM64L-G16RevA.03 25-Dec-2016

 ---------------------------------------
 #p wb97xd/cc-pvdz sp scf=(maxcycles=20)
 ---------------------------------------

 ------------------
 Base pair stacking
 ------------------
 Symbolic Z-matrix:
 Charge =  0 Multiplicity = 1

                         Standard orientation:
 ---------------------------------------------------------------------
 Center     Atomic      Atomic             Coordinates (Angstroms)
 Number     Number       Type             X           Y           Z
 ---------------------------------------------------------------------
      1          7           0        5.225977   -1.911998   -1.410070
      2          6           0        6.619384   -1.474598   -1.622419
      3          6           0        3.030733   -1.966442   -1.286651
      4          7           0        3.472911   -3.220417   -0.890729
      5          6           0        4.777771   -3.137432   -0.980937
      6          1           0        5.468352   -3.947482   -0.744597
      7          7           0        1.651598   -0.132063   -1.830697
      8          6           0        2.777183    0.534704   -2.106491
      9          1           0        2.639006    1.561799   -2.441520
     10          7           0        4.041872    0.125136   -2.030918
     11          6           0        4.099877   -1.149118   -1.609824
     12          6           0        1.743555   -1.412300   -1.409239
     13          7           0        0.621105   -2.079537   -1.133437
     14          1           0        0.641706   -3.029083   -0.818559
     15          1           0       -0.278170   -1.653252   -1.232093
     16          1           0        7.052134   -2.057762   -2.310045
     17          1           0        6.627383   -0.526275   -1.938258
     18          1           0        7.126797   -1.542321   -0.763378
     19          7           0        4.270564    2.621368    1.146076
     20          6           0        2.918759    2.379116    1.190848
     21          6           0        4.894504    3.929536    0.863085
     22          7           0       -0.351428    3.517025    0.921142
     23          1           0       -1.273112    3.137890    0.998578
     24          1           0       -0.278168    4.491649    0.707885
     25          7           0        1.941228    3.288123    0.985489
     26          6           0        0.737960    2.753600    1.095258
     27          7           0        0.507476    1.430337    1.383989
     28          1           0       -0.446211    1.108957    1.448563
     29          6           0        1.497996    0.477214    1.599089
     30          8           0        1.182822   -0.691842    1.853488
     31          6           0        2.796039    1.036530    1.484475
     32          7           0        4.045652    0.447757    1.621288
     33          6           0        4.887490    1.423432    1.412558
     34          1           0        5.973077    1.323707    1.441122
     35          1           0        5.466785    3.858152    0.046875
     36          1           0        4.180077    4.610872    0.709286
     37          1           0        5.456939    4.207690    1.640974
     38          1           0       -5.388638    0.004276    0.996121
     39          1           0       -5.359157    0.104748    2.755003
     40          1           0       -4.272827    1.111221    1.796742
     41          1           0       -3.438812   -4.255960    2.089353
     42          6           0       -3.147425   -3.207571    2.024581
     43          8           0       -0.819756   -3.664630    2.011667
     44          6           0       -1.757823   -2.868426    1.981919
     45          1           0       -0.528258   -1.236392    1.868076
     46          7           0       -1.498835   -1.515091    1.900265
     47          8           0       -2.091883    0.674024    1.785159
     48          6           0       -2.418786   -0.497540    1.857562
     49          1           0       -5.137457   -2.442391    2.014236
     50          6           0       -4.068140   -2.237369    1.984592
     51          6           0       -4.756692    0.147886    1.859881
     52          7           0       -3.737702   -0.904511    1.902918
     53          1           0       -5.168669    3.721579   -2.977693
     54          1           0       -3.846105    3.835661   -2.029067
     55          1           0       -5.335049    3.952910   -1.370758
     56          1           0       -2.919404   -3.049760   -0.939264
     57          1           0       -4.562668   -2.651871   -1.166135
     58          7           0       -3.610827   -2.348121   -1.111863
     59          6           0       -3.279347   -1.064213   -1.263081
     60          6           0       -3.716437    1.243927   -1.641442
     61          7           0       -2.430084    1.622969   -1.563556
     62          1           0       -0.582923    0.791024   -1.252984
     63          6           0       -1.646890    0.571584   -1.330986
     64          7           0       -1.976967   -0.715116   -1.179222
     65          1           0       -6.909626    1.580089   -2.019201
     66          6           0       -5.897904    1.205553   -1.860812
     67          7           0       -5.593365   -0.051276   -1.647924
     68          6           0       -4.213220   -0.040859   -1.507138
     69          6           0       -4.788234    3.505407   -2.078505
     70          7           0       -4.810405    2.044587   -1.869853
 ---------------------------------------------------------------------

 SCF Done:  E(RwB97XD) =  -2048.75011713     A.U. after   15 cycles

 The electronic state is 1-A.
 Alpha  occ. eigenvalues --  -19.25647 -19.21947 -19.20523 -14.52562 -14.52299
 Alpha  occ. eigenvalues --  -14.48769 -14.48447 -14.48150 -14.47607 -14.46820
 Alpha  occ. eigenvalues --  -14.46539 -14.45610 -14.44450 -14.44416 -14.42116
 Alpha  occ. eigenvalues --  -14.41961 -14.40908 -14.40761 -14.40574 -14.40033
 Alpha  occ. eigenvalues --  -10.45278 -10.41172 -10.40140 -10.40037 -10.38157
 Alpha  occ. eigenvalues --  -10.38142 -10.37789 -10.37320 -10.35889 -10.35151
 Alpha  occ. eigenvalues --  -10.34733 -10.34313 -10.33970 -10.33494 -10.33356
 Alpha  occ. eigenvalues --  -10.32856 -10.32807 -10.32763 -10.31018 -10.30914
 Alpha  occ. eigenvalues --  -10.30504 -10.28072 -10.28035  -1.19236  -1.15309
 Alpha  occ. eigenvalues --   -1.13124  -1.12938  -1.10743  -1.10546  -1.09496
 Alpha  occ. eigenvalues --   -1.09139  -1.08479  -1.04991  -1.04704  -1.02284
 Alpha  occ. eigenvalues --   -1.01116  -1.00130  -0.99634  -0.98490  -0.97015
 Alpha  occ. eigenvalues --   -0.96572  -0.96404  -0.92398  -0.90973  -0.87735
 Alpha  occ. eigenvalues --   -0.86002  -0.84083  -0.83437  -0.83347  -0.82478
 Alpha  occ. eigenvalues --   -0.81853  -0.78773  -0.77173  -0.74966  -0.74575
 Alpha  occ. eigenvalues --   -0.73560  -0.73174  -0.72521  -0.70685  -0.70530
 Alpha  occ. eigenvalues --   -0.67308  -0.66977  -0.66375  -0.65918  -0.64405
 Alpha  occ. eigenvalues --   -0.64365  -0.63695  -0.62600  -0.62354  -0.61691
 Alpha  occ. eigenvalues --   -0.60693  -0.60392  -0.60271  -0.59454  -0.59383
 Alpha  occ. eigenvalues --   -0.59196  -0.58256  -0.56625  -0.56240  -0.55845
 Alpha  occ. eigenvalues --   -0.55806  -0.55434  -0.55139  -0.54384  -0.54072
 Alpha  occ. eigenvalues --   -0.53813  -0.53574  -0.53514  -0.53149  -0.52932
 Alpha  occ. eigenvalues --   -0.52880  -0.52197  -0.51350  -0.50304  -0.50137
 Alpha  occ. eigenvalues --   -0.50044  -0.49724  -0.49354  -0.49222  -0.48782
 Alpha  occ. eigenvalues --   -0.48531  -0.48386  -0.48244  -0.47638  -0.47250
 Alpha  occ. eigenvalues --   -0.46538  -0.45747  -0.45329  -0.44359  -0.43554
 Alpha  occ. eigenvalues --   -0.40864  -0.40739  -0.39263  -0.37724  -0.37703
 Alpha  occ. eigenvalues --   -0.37255  -0.37235  -0.36687  -0.35814  -0.34867
 Alpha  occ. eigenvalues --   -0.34482  -0.33888  -0.33184  -0.33092  -0.32921
 Alpha  occ. eigenvalues --   -0.32640  -0.32440  -0.32236  -0.31846  -0.30481
 Alpha  occ. eigenvalues --   -0.30129  -0.29880  -0.25495  -0.25328
 Alpha virt. eigenvalues --    0.02767   0.04174   0.06642   0.08337   0.08905
 Alpha virt. eigenvalues --    0.09289   0.09826   0.10333   0.11362   0.11822
 Alpha virt. eigenvalues --    0.12883   0.14487   0.14535   0.14897   0.14974

 Mulliken charges:
               1
     1  N   -0.312358
     2  C    0.181791
     3  C    0.054650
     4  N   -0.258826
     5  C    0.140619
     6  H    0.025654
     7  N   -0.297801
     8  C    0.133730
     9  H    0.010030
    10  N   -0.288268
    11  C    0.256850
    12  C    0.101025
    13  N   -0.057717
    14  H    0.113421
    15  H    0.082342
    16  H    0.023209
    17  H    0.030388
    18  H    0.026819
    19  N   -0.309080
    20  C    0.253022
    21  C    0.180780
    22  N   -0.116890
    23  H    0.114728
    24  H    0.116349
    25  N   -0.310913
    26  C    0.242093
    27  N   -0.146579
    28  H    0.118957
    29  C    0.193769
    30  O   -0.322556
    31  C   -0.017258
    32  N   -0.225963
    33  C    0.129533
    34  H    0.020163
    35  H    0.029388
    36  H    0.028850
    37  H    0.023883
    38  H    0.062840
    39  H    0.059006
    40  H    0.072781
    41  H    0.026740
    42  C   -0.120265
    43  O   -0.265614
    44  C    0.168164
    45  H    0.131175
    46  N   -0.119547
    47  O   -0.342288
    48  C    0.337344
    49  H    0.044590
    50  C    0.167858
    51  C    0.035989
    52  N   -0.277182
    53  H    0.034741
    54  H    0.040183
    55  H    0.028807
    56  H    0.123182
    57  H    0.114561
    58  N   -0.054334
    59  C    0.090434
    60  C    0.254445
    61  N   -0.275346
    62  H    0.035884
    63  C    0.171681
    64  N   -0.310334
    65  H    0.038462
    66  C    0.136854
    67  N   -0.265214
    68  C    0.016966
    69  C    0.180447
    70  N   -0.310841
 Sum of Mulliken charges =  -0.00000

 Dipole moment (field-independent basis, Debye):
    X=             -8.2219    Y=              6.5416    Z=             -1.4566  Tot=             10.6073
 Quadrupole moment (field-independent basis, Debye-Ang):
   XX=           -157.3491   YY=           -218.2561   ZZ=           -253.3215
   XY=              1.4823   XZ=             -7.3674   YZ=              5.9321

 Normal termination of Gaussian 16 at Wed Jan 24 05:38:57 2018.
