 Gaussian 16, Revision A.03,
 Gaussian 16:  EM64L-G16RevA.03 25-Dec-2016

 ---------------------------------------
 #p wb97xd/cc-pvdz sp scf=(maxcycles=20)
 ---------------------------------------

 ------------------
 Base pair stacking
 ------------------
 Symbolic Z-matrix:
 Charge =  0 Multiplicity = 1

                         Standard orientation:
 ---------------------------------------------------------------------
 Center     Atomic      Atomic             Coordinates (Angstroms)
 Number     Number       Type             X           Y           Z
 ---------------------------------------------------------------------
      1          7           0        4.583908   -1.834577   -1.746958
      2          6           0        5.981705   -1.386757   -1.900630
      3          6           0        2.391316   -1.875433   -1.579078
      4          7           0        2.813868   -3.191932   -1.464995
      5          6           0        4.117910   -3.114620   -1.570701
      6          1           0        4.795175   -3.968043   -1.526798
      7          7           0        1.042042    0.055798   -1.692083
      8          6           0        2.175908    0.745787   -1.852861
      9          1           0        2.053452    1.822448   -1.962783
     10          7           0        3.432414    0.307560   -1.898019
     11          6           0        3.471091   -1.027355   -1.753299
     12          6           0        1.114538   -1.285622   -1.549164
     13          7           0       -0.016202   -1.976124   -1.388562
     14          1           0       -0.009971   -2.970702   -1.279049
     15          1           0       -0.907616   -1.523077   -1.372241
     16          1           0        6.385630   -1.820926   -2.705933
     17          1           0        6.004000   -0.393685   -2.012090
     18          1           0        6.506616   -1.641171   -1.088381
     19          7           0        4.909617    2.385964    0.847783
     20          6           0        3.556585    2.163686    0.936857
     21          6           0        5.542185    3.676027    0.506773
     22          7           0        0.295003    3.337115    0.720202
     23          1           0       -0.628966    2.973176    0.834570
     24          1           0        0.374805    4.303497    0.474359
     25          7           0        2.585454    3.079083    0.729489
     26          6           0        1.378937    2.564711    0.888720
     27          7           0        1.139605    1.254376    1.225259
     28          1           0        0.184039    0.948197    1.325815
     29          6           0        2.123430    0.295011    1.443403
     30          8           0        1.800467   -0.861123    1.743057
     31          6           0        3.424857    0.832726    1.275974
     32          7           0        4.670135    0.231526    1.397351
     33          6           0        5.518295    1.188635    1.135127
     34          1           0        6.602903    1.075063    1.137350
     35          1           0        6.090791    3.571397   -0.322009
     36          1           0        4.832560    4.361904    0.350968
     37          1           0        6.129352    3.970643    1.259934
     38          1           0       -4.782699   -0.102582    1.042827
     39          1           0       -4.703470    0.052369    2.796213
     40          1           0       -3.631195    1.013509    1.777492
     41          1           0       -2.858067   -4.352781    2.216766
     42          6           0       -2.555210   -3.310992    2.111024
     43          8           0       -0.234807   -3.799933    2.049379
     44          6           0       -1.163090   -2.992331    2.019957
     45          1           0        0.083618   -1.381566    1.821289
     46          7           0       -0.889177   -1.645866    1.888592
     47          8           0       -1.457166    0.546471    1.720531
     48          6           0       -1.796878   -0.617698    1.838756
     49          1           0       -4.534826   -2.519460    2.130526
     50          6           0       -3.464207   -2.330050    2.065411
     51          6           0       -4.125403    0.059310    1.884149
     52          7           0       -3.119131   -1.005025    1.932733
     53          1           0       -5.713591    4.181938   -1.828843
     54          1           0       -4.367804    4.072412   -0.912873
     55          1           0       -5.838568    4.075490   -0.205110
     56          1           0       -3.572444   -2.903824   -1.306384
     57          1           0       -5.210993   -2.438839   -1.401483
     58          7           0       -4.251559   -2.169708   -1.310544
     59          6           0       -3.894680   -0.888481   -1.199785
     60          6           0       -4.287975    1.455024   -1.077239
     61          7           0       -2.991971    1.787033   -0.956447
     62          1           0       -1.157537    0.876599   -0.875363
     63          6           0       -2.227672    0.696805   -0.968967
     64          7           0       -2.583204   -0.587284   -1.079808
     65          1           0       -7.480447    1.918102   -1.291381
     66          6           0       -6.474129    1.501220   -1.241525
     67          7           0       -6.193315    0.222552   -1.303314
     68          6           0       -4.810479    0.179340   -1.200313
     69          6           0       -5.318023    3.776189   -1.004886
     70          7           0       -5.368455    2.304621   -1.104588
 ---------------------------------------------------------------------

 SCF Done:  E(RwB97XD) =  -2048.74749702     A.U. after   15 cycles

 The electronic state is 1-A.
 Alpha  occ. eigenvalues --  -19.25239 -19.21356 -19.20438 -14.52769 -14.51787
 Alpha  occ. eigenvalues --  -14.49053 -14.48800 -14.48257 -14.47192 -14.46576
 Alpha  occ. eigenvalues --  -14.46425 -14.45703 -14.45006 -14.44871 -14.42938
 Alpha  occ. eigenvalues --  -14.41938 -14.41048 -14.40958 -14.40930 -14.40521
 Alpha  occ. eigenvalues --  -10.44819 -10.41052 -10.40630 -10.39487 -10.38267
 Alpha  occ. eigenvalues --  -10.38044 -10.37623 -10.37350 -10.36423 -10.35685
 Alpha  occ. eigenvalues --  -10.34258 -10.34140 -10.34112 -10.33688 -10.33486
 Alpha  occ. eigenvalues --  -10.33116 -10.33063 -10.33022 -10.30975 -10.30634
 Alpha  occ. eigenvalues --  -10.30318 -10.28401 -10.28023  -1.18852  -1.15556
 Alpha  occ. eigenvalues --   -1.13036  -1.12385  -1.10922  -1.10532  -1.09973
 Alpha  occ. eigenvalues --   -1.08701  -1.08383  -1.05457  -1.05193  -1.01823
 Alpha  occ. eigenvalues --   -1.01330  -1.00671  -0.99521  -0.98423  -0.97498
 Alpha  occ. eigenvalues --   -0.96620  -0.96582  -0.92889  -0.90530  -0.88090
 Alpha  occ. eigenvalues --   -0.86245  -0.84087  -0.83631  -0.82930  -0.82481
 Alpha  occ. eigenvalues --   -0.81953  -0.78312  -0.77542  -0.75372  -0.74536
 Alpha  occ. eigenvalues --   -0.73443  -0.72897  -0.72749  -0.71045  -0.70874
 Alpha  occ. eigenvalues --   -0.67357  -0.67215  -0.66291  -0.65978  -0.64738
 Alpha  occ. eigenvalues --   -0.64205  -0.63457  -0.62755  -0.62476  -0.61630
 Alpha  occ. eigenvalues --   -0.61061  -0.60725  -0.60504  -0.59819  -0.59138
 Alpha  occ. eigenvalues --   -0.58945  -0.58142  -0.56820  -0.56500  -0.55805
 Alpha  occ. eigenvalues --   -0.55715  -0.55611  -0.55540  -0.54858  -0.54096
 Alpha  occ. eigenvalues --   -0.53888  -0.53620  -0.53284  -0.53185  -0.52851
 Alpha  occ. eigenvalues --   -0.52113  -0.51872  -0.51459  -0.50415  -0.50399
 Alpha  occ. eigenvalues --   -0.50044  -0.49918  -0.49701  -0.49020  -0.48853
 Alpha  occ. eigenvalues --   -0.48674  -0.48053  -0.47853  -0.47740  -0.47039
 Alpha  occ. eigenvalues --   -0.46783  -0.45653  -0.45315  -0.44515  -0.43311
 Alpha  occ. eigenvalues --   -0.41263  -0.41151  -0.38978  -0.38155  -0.38096
 Alpha  occ. eigenvalues --   -0.37319  -0.37191  -0.36919  -0.35321  -0.35306
 Alpha  occ. eigenvalues --   -0.34954  -0.34074  -0.33416  -0.33285  -0.32799
 Alpha  occ. eigenvalues --   -0.32420  -0.32412  -0.31783  -0.31335  -0.30610
 Alpha  occ. eigenvalues --   -0.30456  -0.30379  -0.26147  -0.25125
 Alpha virt. eigenvalues --    0.03405   0.03744   0.06332   0.07984   0.09043
 Alpha virt. eigenvalues --    0.09368   0.09842   0.10146   0.10861   0.11761
 Alpha virt. eigenvalues --    0.13325   0.14434   0.14474   0.14696   0.14793

 Mulliken charges:
               1
     1  N   -0.310341
     2  C    0.183183
     3  C    0.060876
     4  N   -0.261218
     5  C    0.145585
     6  H    0.027645
     7  N   -0.288112
     8  C    0.121504
     9  H    0.015567
    10  N   -0.273675
    11  C    0.255014
    12  C    0.085110
    13  N   -0.067136
    14  H    0.112054
    15  H    0.081409
    16  H    0.021162
    17  H    0.029147
    18  H    0.031551
    19  N   -0.307756
    20  C    0.256211
    21  C    0.181891
    22  N   -0.117671
    23  H    0.120452
    24  H    0.116552
    25  N   -0.305307
    26  C    0.226513
    27  N   -0.123234
    28  H    0.114397
    29  C    0.171493
    30  O   -0.320587
    31  C   -0.002277
    32  N   -0.231295
    33  C    0.120413
    34  H    0.020258
    35  H    0.026976
    36  H    0.029422
    37  H    0.024007
    38  H    0.068864
    39  H    0.056268
    40  H    0.077064
    41  H    0.026394
    42  C   -0.117080
    43  O   -0.262923
    44  C    0.175072
    45  H    0.133629
    46  N   -0.127165
    47  O   -0.345739
    48  C    0.351893
    49  H    0.042213
    50  C    0.165624
    51  C    0.034136
    52  N   -0.277907
    53  H    0.034825
    54  H    0.038657
    55  H    0.030970
    56  H    0.119128
    57  H    0.119599
    58  N   -0.062622
    59  C    0.080782
    60  C    0.240080
    61  N   -0.272586
    62  H    0.016718
    63  C    0.188788
    64  N   -0.310992
    65  H    0.040298
    66  C    0.137216
    67  N   -0.255309
    68  C    0.012035
    69  C    0.181412
    70  N   -0.309124
 Sum of Mulliken charges =  -0.00000

 Dipole moment (field-independent basis, Debye):
    X=             -8.0837    Y=              6.5928    Z=             -1.7397  Tot=             10.5753
 Quadrupole moment (field-independent basis, Debye-Ang):
   XX=           -162.3713   YY=           -219.5256   ZZ=           -253.3673
   XY=              4.9327   XZ=            -15.4099   YZ=             10.4890

 Normal termination of Gaussian 16 at Tue Jan 23 18:03:53 2018.
