 Gaussian 16, Revision A.03,
 Gaussian 16:  EM64L-G16RevA.03 25-Dec-2016

 ---------------------------------------
 #p wb97xd/cc-pvdz sp scf=(maxcycles=20)
 ---------------------------------------

 ------------------
 Base pair stacking
 ------------------
 Symbolic Z-matrix:
 Charge =  0 Multiplicity = 1

                         Standard orientation:
 ---------------------------------------------------------------------
 Center     Atomic      Atomic             Coordinates (Angstroms)
 Number     Number       Type             X           Y           Z
 ---------------------------------------------------------------------
      1          7           0       -6.645889   -1.507056    0.467491
      2          6           0       -8.017536   -0.986819    0.306403
      3          6           0       -4.474641   -1.660715    0.782748
      4          7           0       -4.932499   -2.957052    0.596724
      5          6           0       -6.222264   -2.812598    0.414235
      6          1           0       -6.918705   -3.632213    0.234940
      7          7           0       -3.080299    0.203437    1.161790
      8          6           0       -4.183217    0.952564    1.062032
      9          1           0       -4.029859    2.024213    1.181686
     10          7           0       -5.441227    0.578428    0.837698
     11          6           0       -5.519278   -0.756098    0.705802
     12          6           0       -3.192043   -1.135858    1.024361
     13          7           0       -2.092220   -1.885332    1.123622
     14          1           0       -2.127995   -2.880783    1.028633
     15          1           0       -1.195509   -1.477584    1.296217
     16          1           0       -8.609517   -1.380386    1.009855
     17          1           0       -8.010071    0.008588    0.397095
     18          1           0       -8.366351   -1.234887   -0.597358
     19          7           0       -2.727768    2.549117   -1.662491
     20          6           0       -1.401657    2.257881   -1.451154
     21          6           0       -3.349000    3.876989   -1.484961
     22          7           0        1.793221    3.273139   -0.543521
     23          1           0        2.699024    2.861129   -0.448621
     24          1           0        1.713998    4.248078   -0.333904
     25          7           0       -0.450982    3.128847   -1.049048
     26          6           0        0.731858    2.551504   -0.934249
     27          7           0        0.967764    1.223007   -1.192969
     28          1           0        1.904474    0.867436   -1.078474
     29          6           0        0.004698    0.308507   -1.607785
     30          8           0        0.322396   -0.869269   -1.814314
     31          6           0       -1.271173    0.914064   -1.735600
     32          7           0       -2.490819    0.372524   -2.117820
     33          6           0       -3.322966    1.376707   -2.059790
     34          1           0       -4.385685    1.317033   -2.297162
     35          1           0       -4.069372    3.820200   -0.794573
     36          1           0       -2.654341    4.530476   -1.187179
     37          1           0       -3.741801    4.181657   -2.351967
     38          1           0        6.627227   -0.421010    0.295648
     39          1           0        6.939276   -0.305701   -1.434665
     40          1           0        5.724563    0.732311   -0.687410
     41          1           0        4.777908   -4.598264   -1.213376
     42          6           0        4.515781   -3.540447   -1.190147
     43          8           0        2.214554   -3.912060   -1.629913
     44          6           0        3.156327   -3.150999   -1.409355
     45          1           0        1.984702   -1.475974   -1.509024
     46          7           0        2.933235   -1.789772   -1.358880
     47          8           0        3.568197    0.375186   -1.100092
     48          6           0        3.862368   -0.806952   -1.125819
     49          1           0        6.491987   -2.848758   -0.787658
     50          6           0        5.444558   -2.604947   -0.960305
     51          6           0        6.178097   -0.247571   -0.670926
     52          7           0        5.150669   -1.261578   -0.923787
     53          1           0        3.696142    3.991653    2.714726
     54          1           0        2.577609    3.926393    1.528675
     55          1           0        4.164993    3.839052    1.158990
     56          1           0        1.341774   -2.989970    1.831928
     57          1           0        2.943102   -2.604595    2.276149
     58          7           0        2.042239   -2.290549    1.974423
     59          6           0        1.787373   -0.996333    1.771412
     60          6           0        2.323329    1.321050    1.706474
     61          7           0        1.104310    1.713819    1.301337
     62          1           0       -0.714933    0.893737    0.833968
     63          6           0        0.298042    0.663468    1.161253
     64          7           0        0.551428   -0.633536    1.364101
     65          1           0        5.413199    1.630403    2.606025
     66          6           0        4.420830    1.262831    2.343299
     67          7           0        4.064945    0.001573    2.359320
     68          6           0        2.737241    0.024449    1.957584
     69          6           0        3.467802    3.585783    1.829788
     70          7           0        3.416150    2.116434    1.957667
 ---------------------------------------------------------------------

 SCF Done:  E(RwB97XD) =  -2048.70943651     A.U. after   15 cycles

 The electronic state is 1-A.
 Alpha  occ. eigenvalues --  -19.25915 -19.22015 -19.20626 -14.52432 -14.52042
 Alpha  occ. eigenvalues --  -14.49074 -14.48691 -14.47921 -14.47379 -14.46550
 Alpha  occ. eigenvalues --  -14.46281 -14.44961 -14.43420 -14.42632 -14.42553
 Alpha  occ. eigenvalues --  -14.42080 -14.41740 -14.41286 -14.40677 -14.40460
 Alpha  occ. eigenvalues --  -10.45526 -10.41123 -10.40139 -10.39103 -10.38170
 Alpha  occ. eigenvalues --  -10.37816 -10.37535 -10.36424 -10.35745 -10.35221
 Alpha  occ. eigenvalues --  -10.34860 -10.34400 -10.34322 -10.33992 -10.33696
 Alpha  occ. eigenvalues --  -10.33464 -10.33121 -10.31870 -10.31221 -10.31121
 Alpha  occ. eigenvalues --  -10.30784 -10.28865 -10.28069  -1.19482  -1.14727
 Alpha  occ. eigenvalues --   -1.13298  -1.13040  -1.11664  -1.10539  -1.09323
 Alpha  occ. eigenvalues --   -1.08809  -1.08313  -1.05304  -1.04009  -1.02528
 Alpha  occ. eigenvalues --   -1.00781  -1.00692  -0.99735  -0.98539  -0.97280
 Alpha  occ. eigenvalues --   -0.96518  -0.96020  -0.92965  -0.91061  -0.87171
 Alpha  occ. eigenvalues --   -0.85737  -0.84255  -0.84055  -0.83636  -0.82615
 Alpha  occ. eigenvalues --   -0.82448  -0.78887  -0.76473  -0.74712  -0.74195
 Alpha  occ. eigenvalues --   -0.73670  -0.73385  -0.73225  -0.71402  -0.69909
 Alpha  occ. eigenvalues --   -0.67435  -0.66634  -0.66588  -0.66244  -0.64462
 Alpha  occ. eigenvalues --   -0.63806  -0.63755  -0.63034  -0.62790  -0.61946
 Alpha  occ. eigenvalues --   -0.60579  -0.60215  -0.59991  -0.59519  -0.59406
 Alpha  occ. eigenvalues --   -0.59042  -0.58182  -0.57148  -0.56751  -0.56641
 Alpha  occ. eigenvalues --   -0.55991  -0.55717  -0.55620  -0.54822  -0.54353
 Alpha  occ. eigenvalues --   -0.53765  -0.53574  -0.53116  -0.52925  -0.52633
 Alpha  occ. eigenvalues --   -0.52410  -0.52152  -0.52035  -0.51073  -0.50503
 Alpha  occ. eigenvalues --   -0.50115  -0.49538  -0.49425  -0.48984  -0.48750
 Alpha  occ. eigenvalues --   -0.48609  -0.48284  -0.48202  -0.48027  -0.47398
 Alpha  occ. eigenvalues --   -0.47265  -0.45852  -0.45307  -0.43975  -0.43183
 Alpha  occ. eigenvalues --   -0.41518  -0.40108  -0.39486  -0.37563  -0.37504
 Alpha  occ. eigenvalues --   -0.37242  -0.37156  -0.36550  -0.35875  -0.34386
 Alpha  occ. eigenvalues --   -0.34087  -0.33800  -0.33695  -0.33192  -0.32650
 Alpha  occ. eigenvalues --   -0.32391  -0.32200  -0.31966  -0.31793  -0.31193
 Alpha  occ. eigenvalues --   -0.30680  -0.28707  -0.26123  -0.25380
 Alpha virt. eigenvalues --    0.03048   0.04514   0.07468   0.07589   0.08849
 Alpha virt. eigenvalues --    0.09110   0.09435   0.10647   0.11342   0.11855
 Alpha virt. eigenvalues --    0.12832   0.13871   0.14256   0.14640   0.14752

 Mulliken charges:
               1
     1  N   -0.312093
     2  C    0.180781
     3  C    0.039762
     4  N   -0.259862
     5  C    0.134611
     6  H    0.027542
     7  N   -0.286530
     8  C    0.127052
     9  H    0.010792
    10  N   -0.289719
    11  C    0.243412
    12  C    0.122308
    13  N   -0.055358
    14  H    0.108077
    15  H    0.088189
    16  H    0.026035
    17  H    0.033620
    18  H    0.026826
    19  N   -0.306807
    20  C    0.232397
    21  C    0.180465
    22  N   -0.090396
    23  H    0.112433
    24  H    0.115343
    25  N   -0.285259
    26  C    0.197856
    27  N   -0.112985
    28  H    0.118275
    29  C    0.134347
    30  O   -0.316867
    31  C    0.024266
    32  N   -0.222362
    33  C    0.123846
    34  H    0.028006
    35  H    0.028717
    36  H    0.027501
    37  H    0.024447
    38  H    0.062393
    39  H    0.059180
    40  H    0.071412
    41  H    0.031023
    42  C   -0.114807
    43  O   -0.266056
    44  C    0.174762
    45  H    0.135249
    46  N   -0.133810
    47  O   -0.348557
    48  C    0.358448
    49  H    0.047869
    50  C    0.173883
    51  C    0.040935
    52  N   -0.291112
    53  H    0.037234
    54  H    0.032128
    55  H    0.025079
    56  H    0.123562
    57  H    0.115442
    58  N   -0.066683
    59  C    0.102969
    60  C    0.222100
    61  N   -0.268445
    62  H    0.056895
    63  C    0.164942
    64  N   -0.300258
    65  H    0.031208
    66  C    0.132097
    67  N   -0.263536
    68  C    0.026528
    69  C    0.161661
    70  N   -0.312403
 Sum of Mulliken charges =  -0.00000

 Dipole moment (field-independent basis, Debye):
    X=              7.4566    Y=              5.6600    Z=              3.1341  Tot=              9.8721
 Quadrupole moment (field-independent basis, Debye-Ang):
   XX=           -147.9430   YY=           -221.6711   ZZ=           -254.5314
   XY=              3.9593   XZ=              9.4454   YZ=            -10.5433

 Normal termination of Gaussian 16 at Tue Jan 23 17:06:06 2018.
