 Gaussian 16, Revision A.03,
 Gaussian 16:  EM64L-G16RevA.03 25-Dec-2016

 ---------------------------------------
 #p wb97xd/cc-pvdz sp scf=(maxcycles=20)
 ---------------------------------------

 ------------------
 Base pair stacking
 ------------------
 Symbolic Z-matrix:
 Charge =  0 Multiplicity = 1

                         Standard orientation:
 ---------------------------------------------------------------------
 Center     Atomic      Atomic             Coordinates (Angstroms)
 Number     Number       Type             X           Y           Z
 ---------------------------------------------------------------------
      1          7           0        4.591640   -1.785936   -1.727599
      2          6           0        5.992165   -1.332005   -1.829897
      3          6           0        2.396522   -1.833106   -1.598817
      4          7           0        2.816038   -3.154941   -1.560199
      5          6           0        4.121730   -3.073617   -1.639326
      6          1           0        4.797463   -3.929375   -1.637620
      7          7           0        1.050913    0.103918   -1.613287
      8          6           0        2.187865    0.800488   -1.711919
      9          1           0        2.068143    1.882127   -1.756406
     10          7           0        3.444586    0.363585   -1.763603
     11          6           0        3.479749   -0.977820   -1.701896
     12          6           0        1.119921   -1.243937   -1.553218
     13          7           0       -0.013904   -1.941011   -1.454750
     14          1           0       -0.010307   -2.940504   -1.407466
     15          1           0       -0.905099   -1.488207   -1.424886
     16          1           0        6.409044   -1.715806   -2.653965
     17          1           0        6.017123   -0.333950   -1.878753
     18          1           0        6.503315   -1.637601   -1.026568
     19          7           0        4.905569    2.357347    0.843720
     20          6           0        3.552237    2.130977    0.916491
     21          6           0        5.538086    3.643716    0.488928
     22          7           0        0.289670    3.286471    0.629688
     23          1           0       -0.634463    2.920753    0.736746
     24          1           0        0.369335    4.248595    0.367603
     25          7           0        2.580725    3.038361    0.678028
     26          6           0        1.373993    2.521837    0.828425
     27          7           0        1.134815    1.216790    1.185011
     28          1           0        0.179056    0.908436    1.276744
     29          6           0        2.119026    0.265702    1.435232
     30          8           0        1.796177   -0.886190    1.750904
     31          6           0        3.420693    0.805811    1.277651
     32          7           0        4.666367    0.212183    1.428574
     33          6           0        5.514597    1.167997    1.161813
     34          1           0        6.599483    1.059076    1.182374
     35          1           0        6.099549    3.526458   -0.329487
     36          1           0        4.828178    4.323652    0.310094
     37          1           0        6.112659    3.954371    1.245356
     38          1           0       -4.778639   -0.168319    0.938321
     39          1           0       -4.726479    0.018591    2.689608
     40          1           0       -3.642778    0.965726    1.669861
     41          1           0       -2.855098   -4.388447    2.217828
     42          6           0       -2.554810   -3.347464    2.097780
     43          8           0       -0.231819   -3.827590    2.079842
     44          6           0       -1.162745   -3.024598    2.021864
     45          1           0        0.080418   -1.412407    1.812779
     46          7           0       -0.892229   -1.679576    1.870258
     47          8           0       -1.466308    0.506949    1.653997
     48          6           0       -1.803149   -0.656328    1.788178
     49          1           0       -4.537620   -2.564093    2.073226
     50          6           0       -3.466890   -2.371357    2.020772
     51          6           0       -4.134761    0.011516    1.786345
     52          7           0       -3.125124   -1.047490    1.869305
     53          1           0       -5.698096    4.243122   -1.603672
     54          1           0       -4.367794    4.074137   -0.674240
     55          1           0       -5.850103    4.035764    0.007949
     56          1           0       -3.571787   -2.865411   -1.489394
     57          1           0       -5.208146   -2.392351   -1.582321
     58          7           0       -4.250134   -2.131207   -1.458919
     59          6           0       -3.894078   -0.860057   -1.262492
     60          6           0       -4.287405    1.471968   -1.000373
     61          7           0       -2.993329    1.793365   -0.837696
     62          1           0       -1.161237    0.876235   -0.783344
     63          6           0       -2.229817    0.704635   -0.905646
     64          7           0       -2.584528   -0.569374   -1.102306
     65          1           0       -7.475500    1.953446   -1.237871
     66          6           0       -6.470500    1.532392   -1.197531
     67          7           0       -6.189755    0.259550   -1.334397
     68          6           0       -4.808854    0.207426   -1.211467
     69          6           0       -5.316599    3.785998   -0.800245
     70          7           0       -5.366587    2.323617   -0.992453
 ---------------------------------------------------------------------

 SCF Done:  E(RwB97XD) =  -2048.74178938     A.U. after   15 cycles

 The electronic state is 1-A.
 Alpha  occ. eigenvalues --  -19.25191 -19.21289 -19.20405 -14.52824 -14.51730
 Alpha  occ. eigenvalues --  -14.49125 -14.48742 -14.48336 -14.47158 -14.46489
 Alpha  occ. eigenvalues --  -14.46379 -14.45740 -14.45055 -14.44915 -14.43047
 Alpha  occ. eigenvalues --  -14.41904 -14.41059 -14.40997 -14.40987 -14.40566
 Alpha  occ. eigenvalues --  -10.44760 -10.40991 -10.40693 -10.39424 -10.38296
 Alpha  occ. eigenvalues --  -10.37983 -10.37658 -10.37271 -10.36500 -10.35764
 Alpha  occ. eigenvalues --  -10.34174 -10.34160 -10.33956 -10.33777 -10.33446
 Alpha  occ. eigenvalues --  -10.33187 -10.33068 -10.33009 -10.30937 -10.30578
 Alpha  occ. eigenvalues --  -10.30362 -10.28485 -10.27949  -1.18848  -1.15610
 Alpha  occ. eigenvalues --   -1.12999  -1.12330  -1.11001  -1.10477  -1.10041
 Alpha  occ. eigenvalues --   -1.08657  -1.08346  -1.05526  -1.05277  -1.01780
 Alpha  occ. eigenvalues --   -1.01378  -1.00768  -0.99474  -0.98380  -0.97569
 Alpha  occ. eigenvalues --   -0.96702  -0.96536  -0.92971  -0.90471  -0.88163
 Alpha  occ. eigenvalues --   -0.86303  -0.84040  -0.83708  -0.82870  -0.82435
 Alpha  occ. eigenvalues --   -0.82019  -0.78260  -0.77602  -0.75450  -0.74487
 Alpha  occ. eigenvalues --   -0.73396  -0.72986  -0.72711  -0.71128  -0.70940
 Alpha  occ. eigenvalues --   -0.67419  -0.67168  -0.66381  -0.65936  -0.64805
 Alpha  occ. eigenvalues --   -0.64158  -0.63438  -0.62843  -0.62454  -0.61585
 Alpha  occ. eigenvalues --   -0.61142  -0.60798  -0.60594  -0.59910  -0.59131
 Alpha  occ. eigenvalues --   -0.58894  -0.58092  -0.56943  -0.56512  -0.55908
 Alpha  occ. eigenvalues --   -0.55752  -0.55651  -0.55576  -0.54934  -0.54135
 Alpha  occ. eigenvalues --   -0.53843  -0.53710  -0.53231  -0.53219  -0.52819
 Alpha  occ. eigenvalues --   -0.51959  -0.51845  -0.51526  -0.50494  -0.50448
 Alpha  occ. eigenvalues --   -0.50017  -0.49899  -0.49755  -0.49003  -0.48932
 Alpha  occ. eigenvalues --   -0.48635  -0.48003  -0.47792  -0.47738  -0.47002
 Alpha  occ. eigenvalues --   -0.46860  -0.45617  -0.45192  -0.44458  -0.43258
 Alpha  occ. eigenvalues --   -0.41334  -0.41222  -0.38984  -0.38193  -0.38161
 Alpha  occ. eigenvalues --   -0.37368  -0.37162  -0.36930  -0.35353  -0.35260
 Alpha  occ. eigenvalues --   -0.35027  -0.34200  -0.33488  -0.33273  -0.32765
 Alpha  occ. eigenvalues --   -0.32374  -0.32364  -0.31744  -0.31216  -0.30654
 Alpha  occ. eigenvalues --   -0.30454  -0.30352  -0.26274  -0.24995
 Alpha virt. eigenvalues --    0.03438   0.03707   0.06285   0.07903   0.09049
 Alpha virt. eigenvalues --    0.09393   0.09842   0.10068   0.10767   0.11826
 Alpha virt. eigenvalues --    0.13307   0.14408   0.14413   0.14644   0.14850

 Mulliken charges:
               1
     1  N   -0.310428
     2  C    0.183217
     3  C    0.062202
     4  N   -0.262403
     5  C    0.145229
     6  H    0.027787
     7  N   -0.284826
     8  C    0.117385
     9  H    0.018702
    10  N   -0.270242
    11  C    0.255284
    12  C    0.083077
    13  N   -0.067192
    14  H    0.110772
    15  H    0.081112
    16  H    0.021206
    17  H    0.028942
    18  H    0.032005
    19  N   -0.306189
    20  C    0.254175
    21  C    0.182128
    22  N   -0.112933
    23  H    0.119934
    24  H    0.116173
    25  N   -0.300146
    26  C    0.211423
    27  N   -0.113586
    28  H    0.113923
    29  C    0.164703
    30  O   -0.320092
    31  C    0.001488
    32  N   -0.230631
    33  C    0.118360
    34  H    0.019894
    35  H    0.026503
    36  H    0.029217
    37  H    0.023826
    38  H    0.069531
    39  H    0.054727
    40  H    0.078296
    41  H    0.026735
    42  C   -0.115986
    43  O   -0.263013
    44  C    0.176635
    45  H    0.133638
    46  N   -0.127644
    47  O   -0.344884
    48  C    0.350862
    49  H    0.042568
    50  C    0.165310
    51  C    0.034930
    52  N   -0.277388
    53  H    0.034946
    54  H    0.038150
    55  H    0.031361
    56  H    0.119264
    57  H    0.120156
    58  N   -0.062745
    59  C    0.077559
    60  C    0.234210
    61  N   -0.272707
    62  H    0.009267
    63  C    0.196040
    64  N   -0.309471
    65  H    0.040384
    66  C    0.136581
    67  N   -0.253814
    68  C    0.013605
    69  C    0.181547
    70  N   -0.308645
 Sum of Mulliken charges =  -0.00000

 Dipole moment (field-independent basis, Debye):
    X=             -8.0698    Y=              6.5157    Z=             -2.0642  Tot=             10.5753
 Quadrupole moment (field-independent basis, Debye-Ang):
   XX=           -162.4093   YY=           -220.2399   ZZ=           -253.8722
   XY=              5.2856   XZ=            -15.6565   YZ=             11.7116

 Normal termination of Gaussian 16 at Tue Jan 23 22:18:02 2018.
