 Gaussian 16, Revision A.03,
 Gaussian 16:  EM64L-G16RevA.03 25-Dec-2016

 ---------------------------------------
 #p wb97xd/cc-pvdz sp scf=(maxcycles=20)
 ---------------------------------------

 ------------------
 Base pair stacking
 ------------------
 Symbolic Z-matrix:
 Charge =  0 Multiplicity = 1

                         Standard orientation:
 ---------------------------------------------------------------------
 Center     Atomic      Atomic             Coordinates (Angstroms)
 Number     Number       Type             X           Y           Z
 ---------------------------------------------------------------------
      1          7           0        5.204635   -1.694395   -1.409625
      2          6           0        6.601919   -1.220547   -1.376840
      3          6           0        3.007107   -1.772097   -1.456039
      4          7           0        3.442130   -3.089469   -1.457143
      5          6           0        4.748645   -2.989939   -1.429140
      6          1           0        5.434964   -3.837200   -1.421373
      7          7           0        1.637793    0.148256   -1.469748
      8          6           0        2.768394    0.861339   -1.440673
      9          1           0        2.636291    1.942433   -1.435076
     10          7           0        4.031745    0.441433   -1.417577
     11          6           0        4.082123   -0.900881   -1.426903
     12          6           0        1.722130   -1.200036   -1.478408
     13          7           0        0.594657   -1.913583   -1.507422
     14          1           0        0.609552   -2.914046   -1.514837
     15          1           0       -0.302843   -1.472674   -1.522723
     16          1           0        7.087234   -1.553302   -2.185489
     17          1           0        6.615634   -0.221110   -1.368834
     18          1           0        7.053666   -1.565012   -0.553885
     19          7           0        4.310381    2.400011    1.128538
     20          6           0        2.959040    2.152516    1.102697
     21          6           0        4.948985    3.687964    0.790806
     22          7           0       -0.288608    3.245111    0.536286
     23          1           0       -1.212633    2.866449    0.581193
     24          1           0       -0.203407    4.201807    0.256669
     25          7           0        1.995319    3.037209    0.767112
     26          6           0        0.788490    2.504056    0.837309
     27          7           0        0.542135    1.204171    1.207593
     28          1           0       -0.413096    0.881941    1.233335
     29          6           0        1.518261    0.276294    1.556987
     30          8           0        1.189354   -0.872927    1.876143
     31          6           0        2.819930    0.834452    1.486319
     32          7           0        4.059006    0.265912    1.747755
     33          6           0        4.910825    1.229243    1.522778
     34          1           0        5.992388    1.139304    1.629549
     35          1           0        5.573783    3.560440    0.021272
     36          1           0        4.244879    4.351204    0.540582
     37          1           0        5.458579    4.026585    1.581039
     38          1           0       -5.312968   -0.286788    0.541926
     39          1           0       -5.399268   -0.056596    2.286702
     40          1           0       -4.254326    0.883797    1.329555
     41          1           0       -3.430805   -4.441350    2.072850
     42          6           0       -3.137845   -3.398625    1.949775
     43          8           0       -0.813467   -3.839515    2.122910
     44          6           0       -1.749111   -3.054100    1.973006
     45          1           0       -0.517924   -1.426562    1.819181
     46          7           0       -1.487974   -1.708742    1.808427
     47          8           0       -2.076474    0.461812    1.492950
     48          6           0       -2.405120   -0.703414    1.630430
     49          1           0       -5.124395   -2.649894    1.752731
     50          6           0       -4.055843   -2.440321    1.777929
     51          6           0       -4.739404   -0.075530    1.432132
     52          7           0       -3.723370   -1.114901    1.619513
     53          1           0       -5.152882    4.208235   -1.762251
     54          1           0       -3.896384    4.001857   -0.742091
     55          1           0       -5.426442    3.909673   -0.181287
     56          1           0       -2.935530   -2.872510   -1.871361
     57          1           0       -4.566650   -2.412483   -2.066165
     58          7           0       -3.625124   -2.148421   -1.853950
     59          6           0       -3.304498   -0.886486   -1.560880
     60          6           0       -3.751905    1.422943   -1.203011
     61          7           0       -2.479331    1.748556   -0.922062
     62          1           0       -0.643452    0.849419   -0.774648
     63          6           0       -1.696614    0.673515   -0.989522
     64          7           0       -2.015844   -0.591239   -1.282881
     65          1           0       -6.918793    1.882884   -1.662854
     66          6           0       -5.913762    1.470979   -1.567019
     67          7           0       -5.604186    0.210825   -1.751001
     68          6           0       -4.236370    0.166658   -1.523286
     69          6           0       -4.828106    3.711103   -0.957650
     70          7           0       -4.841091    2.261269   -1.233035
 ---------------------------------------------------------------------

 SCF Done:  E(RwB97XD) =  -2048.73848948     A.U. after   15 cycles

 The electronic state is 1-A.
 Alpha  occ. eigenvalues --  -19.25233 -19.21492 -19.20327 -14.53047 -14.51993
 Alpha  occ. eigenvalues --  -14.48922 -14.48426 -14.48397 -14.47343 -14.46368
 Alpha  occ. eigenvalues --  -14.45957 -14.45648 -14.44826 -14.44789 -14.42742
 Alpha  occ. eigenvalues --  -14.41610 -14.41136 -14.40690 -14.40571 -14.40191
 Alpha  occ. eigenvalues --  -10.44917 -10.40757 -10.40604 -10.39621 -10.38540
 Alpha  occ. eigenvalues --  -10.37887 -10.37774 -10.37434 -10.36456 -10.35560
 Alpha  occ. eigenvalues --  -10.34442 -10.34308 -10.33945 -10.33822 -10.33138
 Alpha  occ. eigenvalues --  -10.33109 -10.33084 -10.32813 -10.30746 -10.30705
 Alpha  occ. eigenvalues --  -10.30621 -10.28348 -10.27704  -1.19080  -1.15776
 Alpha  occ. eigenvalues --   -1.12832  -1.12535  -1.11037  -1.10229  -1.09889
 Alpha  occ. eigenvalues --   -1.08908  -1.08104  -1.05446  -1.05052  -1.01984
 Alpha  occ. eigenvalues --   -1.01559  -1.00539  -0.99074  -0.98208  -0.97468
 Alpha  occ. eigenvalues --   -0.96756  -0.96249  -0.92737  -0.90660  -0.88224
 Alpha  occ. eigenvalues --   -0.86471  -0.83860  -0.83617  -0.83093  -0.82199
 Alpha  occ. eigenvalues --   -0.82110  -0.78469  -0.77621  -0.75562  -0.74247
 Alpha  occ. eigenvalues --   -0.73142  -0.72889  -0.72871  -0.71078  -0.70939
 Alpha  occ. eigenvalues --   -0.67499  -0.66847  -0.66308  -0.66068  -0.64907
 Alpha  occ. eigenvalues --   -0.64103  -0.63457  -0.62749  -0.62526  -0.61260
 Alpha  occ. eigenvalues --   -0.61011  -0.60921  -0.60721  -0.59892  -0.59292
 Alpha  occ. eigenvalues --   -0.58979  -0.57726  -0.56985  -0.56334  -0.55930
 Alpha  occ. eigenvalues --   -0.55894  -0.55740  -0.55615  -0.54657  -0.54329
 Alpha  occ. eigenvalues --   -0.53797  -0.53699  -0.53255  -0.53181  -0.52892
 Alpha  occ. eigenvalues --   -0.52601  -0.51975  -0.51629  -0.50714  -0.50280
 Alpha  occ. eigenvalues --   -0.49932  -0.49787  -0.49710  -0.48976  -0.48912
 Alpha  occ. eigenvalues --   -0.48449  -0.48151  -0.47961  -0.47284  -0.46998
 Alpha  occ. eigenvalues --   -0.46849  -0.45634  -0.44798  -0.44222  -0.43389
 Alpha  occ. eigenvalues --   -0.41502  -0.40852  -0.39068  -0.38228  -0.38092
 Alpha  occ. eigenvalues --   -0.37722  -0.36987  -0.36334  -0.35499  -0.35228
 Alpha  occ. eigenvalues --   -0.34985  -0.33835  -0.33403  -0.33015  -0.32705
 Alpha  occ. eigenvalues --   -0.32339  -0.31952  -0.31774  -0.31591  -0.30702
 Alpha  occ. eigenvalues --   -0.30367  -0.30150  -0.25880  -0.24917
 Alpha virt. eigenvalues --    0.02948   0.04039   0.05963   0.08093   0.09189
 Alpha virt. eigenvalues --    0.09364   0.09942   0.10152   0.11107   0.12084
 Alpha virt. eigenvalues --    0.12622   0.14081   0.14569   0.14751   0.15307

 Mulliken charges:
               1
     1  N   -0.312980
     2  C    0.182677
     3  C    0.053612
     4  N   -0.263282
     5  C    0.139811
     6  H    0.026276
     7  N   -0.289675
     8  C    0.132220
     9  H    0.014859
    10  N   -0.282377
    11  C    0.261821
    12  C    0.094062
    13  N   -0.059406
    14  H    0.107812
    15  H    0.080342
    16  H    0.023361
    17  H    0.028179
    18  H    0.029251
    19  N   -0.290276
    20  C    0.213460
    21  C    0.181146
    22  N   -0.099312
    23  H    0.108724
    24  H    0.111579
    25  N   -0.297658
    26  C    0.219330
    27  N   -0.130820
    28  H    0.113185
    29  C    0.184195
    30  O   -0.322954
    31  C   -0.010433
    32  N   -0.221636
    33  C    0.126520
    34  H    0.016467
    35  H    0.027857
    36  H    0.027502
    37  H    0.022850
    38  H    0.063542
    39  H    0.055509
    40  H    0.074644
    41  H    0.028234
    42  C   -0.113201
    43  O   -0.263079
    44  C    0.178100
    45  H    0.131293
    46  N   -0.126086
    47  O   -0.335714
    48  C    0.337701
    49  H    0.044499
    50  C    0.165143
    51  C    0.039407
    52  N   -0.280743
    53  H    0.036231
    54  H    0.036174
    55  H    0.032035
    56  H    0.120286
    57  H    0.118191
    58  N   -0.060679
    59  C    0.095816
    60  C    0.246945
    61  N   -0.277804
    62  H    0.038572
    63  C    0.174868
    64  N   -0.304885
    65  H    0.039707
    66  C    0.132384
    67  N   -0.254466
    68  C    0.004195
    69  C    0.181797
    70  N   -0.304910
 Sum of Mulliken charges =  -0.00000

 Dipole moment (field-independent basis, Debye):
    X=             -8.1950    Y=              6.2076    Z=             -2.9122  Tot=             10.6851
 Quadrupole moment (field-independent basis, Debye-Ang):
   XX=           -156.8842   YY=           -221.4132   ZZ=           -255.9767
   XY=              2.0676   XZ=             -8.4788   YZ=             12.5233

 Normal termination of Gaussian 16 at Wed Jan 24 01:00:37 2018.
