 Gaussian 16, Revision A.03,
 Gaussian 16:  EM64L-G16RevA.03 25-Dec-2016

 ---------------------------------------
 #p wb97xd/cc-pvdz sp scf=(maxcycles=20)
 ---------------------------------------

 ------------------
 Base pair stacking
 ------------------
 Symbolic Z-matrix:
 Charge =  0 Multiplicity = 1

                         Standard orientation:
 ---------------------------------------------------------------------
 Center     Atomic      Atomic             Coordinates (Angstroms)
 Number     Number       Type             X           Y           Z
 ---------------------------------------------------------------------
      1          7           0        4.572859   -1.948147   -1.767754
      2          6           0        5.962922   -1.524330   -2.024874
      3          6           0        2.387146   -1.966630   -1.523551
      4          7           0        2.818898   -3.256834   -1.252092
      5          6           0        4.118427   -3.194056   -1.410085
      6          1           0        4.800447   -4.034383   -1.277230
      7          7           0        1.026562   -0.066838   -1.843776
      8          6           0        2.151549    0.596134   -2.130932
      9          1           0        2.020903    1.649104   -2.376773
     10          7           0        3.407780    0.155749   -2.159854
     11          6           0        3.456959   -1.148694   -1.842938
     12          6           0        1.109498   -1.377970   -1.528920
     13          7           0       -0.012381   -2.041468   -1.241973
     14          1           0        0.001747   -3.013126   -1.003447
     15          1           0       -0.904729   -1.590175   -1.255644
     16          1           0        6.342096   -2.060261   -2.779310
     17          1           0        5.977249   -0.554416   -2.266094
     18          1           0        6.515280   -1.670140   -1.204115
     19          7           0        4.912536    2.453468    0.839269
     20          6           0        3.560783    2.239504    0.961967
     21          6           0        5.546224    3.747949    0.517650
     22          7           0        0.304815    3.444965    0.876939
     23          1           0       -0.618586    3.085232    1.007992
     24          1           0        0.385920    4.417537    0.657331
     25          7           0        2.592152    3.168406    0.810550
     26          6           0        1.386323    2.659241    0.990392
     27          7           0        1.145372    1.341469    1.295264
     28          1           0        0.190499    1.040133    1.415149
     29          6           0        2.126619    0.368205    1.455779
     30          8           0        1.802371   -0.793671    1.730821
     31          6           0        3.427283    0.900180    1.265602
     32          7           0        4.670200    0.285683    1.332195
     33          6           0        5.518748    1.243310    1.073091
     34          1           0        6.601897    1.121017    1.039737
     35          1           0        6.069205    3.663519   -0.329792
     36          1           0        4.838444    4.443810    0.403228
     37          1           0        6.157940    4.015402    1.261339
     38          1           0       -4.791574    0.038072    1.249214
     39          1           0       -4.659309    0.140362    3.003265
     40          1           0       -3.609025    1.122642    1.981789
     41          1           0       -2.871061   -4.260349    2.240054
     42          6           0       -2.562194   -3.218346    2.155998
     43          8           0       -0.249057   -3.723850    2.011057
     44          6           0       -1.170583   -2.908305    2.032988
     45          1           0        0.084006   -1.302413    1.844732
     46          7           0       -0.888696   -1.560785    1.933147
     47          8           0       -1.441856    0.640061    1.846513
     48          6           0       -1.788291   -0.524335    1.940545
     49          1           0       -4.533259   -2.411877    2.257598
     50          6           0       -3.463367   -2.229219    2.166268
     51          6           0       -4.108344    0.169683    2.075013
     52          7           0       -3.110595   -0.903659    2.062369
     53          1           0       -5.747688    4.005896   -2.296161
     54          1           0       -4.372149    4.017305   -1.418764
     55          1           0       -5.818912    4.113100   -0.669250
     56          1           0       -3.559967   -2.950371   -0.921476
     57          1           0       -5.202747   -2.501840   -1.022405
     58          7           0       -4.242024   -2.223114   -0.999258
     59          6           0       -3.887238   -0.938426   -1.069087
     60          6           0       -4.286426    1.400943   -1.241529
     61          7           0       -2.988611    1.745895   -1.208173
     62          1           0       -1.148592    0.853920   -1.069286
     63          6           0       -2.220430    0.663423   -1.103096
     64          7           0       -2.573853   -0.624122   -1.033020
     65          1           0       -7.486178    1.832006   -1.408762
     66          6           0       -6.476975    1.425239   -1.338060
     67          7           0       -6.192815    0.149482   -1.241138
     68          6           0       -4.807170    0.120133   -1.179151
     69          6           0       -5.323574    3.711595   -1.439712
     70          7           0       -5.370890    2.239646   -1.344148
 ---------------------------------------------------------------------

 SCF Done:  E(RwB97XD) =  -2048.75005894     A.U. after   15 cycles

 The electronic state is 1-A.
 Alpha  occ. eigenvalues --  -19.25385 -19.21529 -19.20535 -14.52647 -14.51945
 Alpha  occ. eigenvalues --  -14.48926 -14.48900 -14.48078 -14.47299 -14.46757
 Alpha  occ. eigenvalues --  -14.46578 -14.45614 -14.44892 -14.44733 -14.42663
 Alpha  occ. eigenvalues --  -14.42028 -14.41155 -14.40757 -14.40728 -14.40355
 Alpha  occ. eigenvalues --  -10.44975 -10.41197 -10.40493 -10.39653 -10.38185
 Alpha  occ. eigenvalues --  -10.38176 -10.37548 -10.37522 -10.36254 -10.35472
 Alpha  occ. eigenvalues --  -10.34452 -10.34417 -10.33999 -10.33579 -10.33481
 Alpha  occ. eigenvalues --  -10.33008 -10.32937 -10.32915 -10.31063 -10.30765
 Alpha  occ. eigenvalues --  -10.30222 -10.28193 -10.28175  -1.18945  -1.15437
 Alpha  occ. eigenvalues --   -1.13157  -1.12546  -1.10735  -1.10659  -1.09839
 Alpha  occ. eigenvalues --   -1.08837  -1.08506  -1.05318  -1.04986  -1.01953
 Alpha  occ. eigenvalues --   -1.01220  -1.00445  -0.99669  -0.98547  -0.97353
 Alpha  occ. eigenvalues --   -0.96705  -0.96421  -0.92685  -0.90693  -0.87945
 Alpha  occ. eigenvalues --   -0.86118  -0.84210  -0.83452  -0.83085  -0.82594
 Alpha  occ. eigenvalues --   -0.81799  -0.78460  -0.77416  -0.75224  -0.74662
 Alpha  occ. eigenvalues --   -0.73584  -0.72883  -0.72687  -0.70870  -0.70724
 Alpha  occ. eigenvalues --   -0.67366  -0.67217  -0.66113  -0.66086  -0.64604
 Alpha  occ. eigenvalues --   -0.64329  -0.63568  -0.62587  -0.62544  -0.61762
 Alpha  occ. eigenvalues --   -0.60915  -0.60574  -0.60310  -0.59638  -0.59208
 Alpha  occ. eigenvalues --   -0.59059  -0.58292  -0.56769  -0.56373  -0.55712
 Alpha  occ. eigenvalues --   -0.55610  -0.55592  -0.55376  -0.54713  -0.54106
 Alpha  occ. eigenvalues --   -0.53897  -0.53567  -0.53433  -0.53081  -0.52967
 Alpha  occ. eigenvalues --   -0.52456  -0.51959  -0.51304  -0.50353  -0.50254
 Alpha  occ. eigenvalues --   -0.50110  -0.49812  -0.49587  -0.49122  -0.48785
 Alpha  occ. eigenvalues --   -0.48659  -0.48191  -0.47988  -0.47818  -0.47150
 Alpha  occ. eigenvalues --   -0.46613  -0.45662  -0.45435  -0.44535  -0.43412
 Alpha  occ. eigenvalues --   -0.41063  -0.40999  -0.39063  -0.38056  -0.37947
 Alpha  occ. eigenvalues --   -0.37364  -0.37293  -0.36775  -0.35451  -0.35204
 Alpha  occ. eigenvalues --   -0.34792  -0.34018  -0.33237  -0.33198  -0.32865
 Alpha  occ. eigenvalues --   -0.32558  -0.32525  -0.31887  -0.31614  -0.30502
 Alpha  occ. eigenvalues --   -0.30379  -0.30245  -0.25912  -0.25303
 Alpha virt. eigenvalues --    0.03243   0.03874   0.06455   0.08194   0.08974
 Alpha virt. eigenvalues --    0.09257   0.09767   0.10283   0.11105   0.11630
 Alpha virt. eigenvalues --    0.13411   0.14400   0.14608   0.14668   0.14865

 Mulliken charges:
               1
     1  N   -0.310359
     2  C    0.183028
     3  C    0.058176
     4  N   -0.258528
     5  C    0.145786
     6  H    0.027117
     7  N   -0.293518
     8  C    0.126817
     9  H    0.011973
    10  N   -0.279779
    11  C    0.255274
    12  C    0.088701
    13  N   -0.067649
    14  H    0.114309
    15  H    0.082209
    16  H    0.021057
    17  H    0.029510
    18  H    0.030475
    19  N   -0.309889
    20  C    0.258030
    21  C    0.181446
    22  N   -0.122658
    23  H    0.120136
    24  H    0.117381
    25  N   -0.311556
    26  C    0.244536
    27  N   -0.138450
    28  H    0.116997
    29  C    0.185073
    30  O   -0.321039
    31  C   -0.009374
    32  N   -0.231818
    33  C    0.123372
    34  H    0.021108
    35  H    0.027661
    36  H    0.029787
    37  H    0.024446
    38  H    0.067369
    39  H    0.058164
    40  H    0.075809
    41  H    0.025846
    42  C   -0.120391
    43  O   -0.262882
    44  C    0.171791
    45  H    0.133487
    46  N   -0.125805
    47  O   -0.348271
    48  C    0.353001
    49  H    0.041601
    50  C    0.167616
    51  C    0.033761
    52  N   -0.278287
    53  H    0.034547
    54  H    0.040016
    55  H    0.030178
    56  H    0.118897
    57  H    0.118385
    58  N   -0.062469
    59  C    0.086108
    60  C    0.247557
    61  N   -0.272854
    62  H    0.028005
    63  C    0.179698
    64  N   -0.313490
    65  H    0.039964
    66  C    0.138145
    67  N   -0.258635
    68  C    0.012454
    69  C    0.181010
    70  N   -0.310108
 Sum of Mulliken charges =  -0.00000

 Dipole moment (field-independent basis, Debye):
    X=             -8.0846    Y=              6.7819    Z=             -1.0916  Tot=             10.6088
 Quadrupole moment (field-independent basis, Debye-Ang):
   XX=           -162.3820   YY=           -218.4193   ZZ=           -252.1971
   XY=              4.1978   XZ=            -14.8816   YZ=              7.7586

 Normal termination of Gaussian 16 at Tue Jan 23 14:34:27 2018.
