 Gaussian 16, Revision A.03,
 Gaussian 16:  EM64L-G16RevA.03 25-Dec-2016

 ---------------------------------------
 #p wb97xd/cc-pvdz sp scf=(maxcycles=20)
 ---------------------------------------

 ------------------
 Base pair stacking
 ------------------
 Symbolic Z-matrix:
 Charge =  0 Multiplicity = 1

                         Standard orientation:
 ---------------------------------------------------------------------
 Center     Atomic      Atomic             Coordinates (Angstroms)
 Number     Number       Type             X           Y           Z
 ---------------------------------------------------------------------
      1          7           0        5.214915   -1.812484   -1.428895
      2          6           0        6.611532   -1.349194   -1.542173
      3          6           0        3.017452   -1.884647   -1.371841
      4          7           0        3.454437   -3.181038   -1.141326
      5          6           0        4.760832   -3.085676   -1.184919
      6          1           0        5.448414   -3.920234   -1.044608
      7          7           0        1.645262    0.006536   -1.693507
      8          6           0        2.774827    0.705617   -1.844985
      9          1           0        2.641114    1.769055   -2.038557
     10          7           0        4.038830    0.290226   -1.793488
     11          6           0        4.091192   -1.029947   -1.550926
     12          6           0        1.731589   -1.319582   -1.450525
     13          7           0        0.605147   -2.019118   -1.299024
     14          1           0        0.621527   -3.003039   -1.117798
     15          1           0       -0.293035   -1.583779   -1.361481
     16          1           0        7.064381   -1.831584   -2.292110
     17          1           0        6.623758   -0.366340   -1.723778
     18          1           0        7.096769   -1.534615   -0.687682
     19          7           0        4.290321    2.518625    1.159749
     20          6           0        2.938082    2.275121    1.174719
     21          6           0        4.919942    3.821231    0.863984
     22          7           0       -0.325249    3.401166    0.794688
     23          1           0       -1.248210    3.022277    0.856548
     24          1           0       -0.247554    4.370912    0.561724
     25          7           0        1.965212    3.177666    0.923770
     26          6           0        0.760094    2.643663    1.014082
     27          7           0        0.523659    1.326768    1.326158
     28          1           0       -0.431024    1.005279    1.373054
     29          6           0        1.509319    0.380366    1.588182
     30          8           0        1.188931   -0.783269    1.860299
     31          6           0        2.809265    0.939209    1.494930
     32          7           0        4.055555    0.355757    1.677323
     33          6           0        4.901440    1.327982    1.468853
     34          1           0        5.986032    1.230770    1.527872
     35          1           0        5.513379    3.732663    0.064741
     36          1           0        4.209006    4.497748    0.676478
     37          1           0        5.461607    4.117595    1.649844
     38          1           0       -5.358749   -0.117644    0.816900
     39          1           0       -5.375214    0.022025    2.573276
     40          1           0       -4.265422    1.008761    1.621399
     41          1           0       -3.433265   -4.349142    2.055266
     42          6           0       -3.141470   -3.301948    1.974725
     43          8           0       -0.813738   -3.755213    2.032592
     44          6           0       -1.751611   -2.961475    1.960678
     45          1           0       -0.521342   -1.330284    1.842500
     46          7           0       -1.492102   -1.609862    1.855628
     47          8           0       -2.084429    0.575135    1.676322
     48          6           0       -2.411773   -0.595077    1.766312
     49          1           0       -5.131411   -2.540597    1.895529
     50          6           0       -4.061925   -2.334454    1.889159
     51          6           0       -4.749686    0.046245    1.693394
     52          7           0       -3.730961   -1.003184    1.786404
     53          1           0       -5.158958    3.977947   -2.476300
     54          1           0       -3.861921    3.960652   -1.486605
     55          1           0       -5.367914    3.985076   -0.857749
     56          1           0       -2.935132   -3.008787   -1.333658
     57          1           0       -4.573603   -2.584276   -1.546505
     58          7           0       -3.624759   -2.290417   -1.425853
     59          6           0       -3.294823   -0.997744   -1.389655
     60          6           0       -3.731557    1.340301   -1.457159
     61          7           0       -2.449253    1.705646   -1.293952
     62          1           0       -0.607315    0.839785   -1.052792
     63          6           0       -1.667971    0.632647   -1.188244
     64          7           0       -1.996525   -0.662861   -1.224246
     65          1           0       -6.915256    1.723668   -1.868615
     66          6           0       -5.906426    1.331401   -1.736920
     67          7           0       -5.602279    0.057384   -1.691627
     68          6           0       -4.226306    0.049000   -1.514561
     69          6           0       -4.801073    3.639886   -1.605883
     70          7           0       -4.822558    2.164239   -1.601510
 ---------------------------------------------------------------------

 SCF Done:  E(RwB97XD) =  -2048.75241282     A.U. after   15 cycles

 The electronic state is 1-A.
 Alpha  occ. eigenvalues --  -19.25443 -19.21696 -19.20401 -14.52761 -14.52117
 Alpha  occ. eigenvalues --  -14.48650 -14.48613 -14.48303 -14.47442 -14.46633
 Alpha  occ. eigenvalues --  -14.46251 -14.45753 -14.44619 -14.44604 -14.42421
 Alpha  occ. eigenvalues --  -14.41811 -14.40953 -14.40762 -14.40730 -14.40188
 Alpha  occ. eigenvalues --  -10.45090 -10.40992 -10.40334 -10.39810 -10.38306
 Alpha  occ. eigenvalues --  -10.38020 -10.37604 -10.37510 -10.36099 -10.35371
 Alpha  occ. eigenvalues --  -10.34546 -10.34166 -10.34160 -10.33671 -10.33229
 Alpha  occ. eigenvalues --  -10.33023 -10.32953 -10.32900 -10.30874 -10.30786
 Alpha  occ. eigenvalues --  -10.30610 -10.28220 -10.27913  -1.19087  -1.15495
 Alpha  occ. eigenvalues --   -1.12969  -1.12704  -1.10906  -1.10394  -1.09636
 Alpha  occ. eigenvalues --   -1.08995  -1.08304  -1.05166  -1.04897  -1.02102
 Alpha  occ. eigenvalues --   -1.01295  -1.00349  -0.99403  -0.98339  -0.97195
 Alpha  occ. eigenvalues --   -0.96586  -0.96421  -0.92593  -0.90790  -0.87922
 Alpha  occ. eigenvalues --   -0.86193  -0.83927  -0.83590  -0.83189  -0.82334
 Alpha  occ. eigenvalues --   -0.82007  -0.78591  -0.77348  -0.75171  -0.74415
 Alpha  occ. eigenvalues --   -0.73368  -0.72993  -0.72711  -0.70861  -0.70709
 Alpha  occ. eigenvalues --   -0.67184  -0.67082  -0.66205  -0.66112  -0.64589
 Alpha  occ. eigenvalues --   -0.64210  -0.63542  -0.62559  -0.62478  -0.61499
 Alpha  occ. eigenvalues --   -0.60847  -0.60574  -0.60455  -0.59621  -0.59290
 Alpha  occ. eigenvalues --   -0.59095  -0.58022  -0.56624  -0.56362  -0.55895
 Alpha  occ. eigenvalues --   -0.55707  -0.55634  -0.55365  -0.54443  -0.54020
 Alpha  occ. eigenvalues --   -0.53941  -0.53519  -0.53405  -0.53089  -0.52963
 Alpha  occ. eigenvalues --   -0.52746  -0.52051  -0.51501  -0.50433  -0.50225
 Alpha  occ. eigenvalues --   -0.49966  -0.49880  -0.49479  -0.49112  -0.48722
 Alpha  occ. eigenvalues --   -0.48612  -0.48206  -0.48075  -0.47467  -0.47107
 Alpha  occ. eigenvalues --   -0.46682  -0.45732  -0.45188  -0.44370  -0.43492
 Alpha  occ. eigenvalues --   -0.41091  -0.40890  -0.39113  -0.37922  -0.37863
 Alpha  occ. eigenvalues --   -0.37248  -0.37103  -0.36739  -0.35649  -0.35023
 Alpha  occ. eigenvalues --   -0.34698  -0.33731  -0.33305  -0.33160  -0.32857
 Alpha  occ. eigenvalues --   -0.32491  -0.32258  -0.32025  -0.31719  -0.30634
 Alpha  occ. eigenvalues --   -0.30304  -0.30070  -0.25631  -0.25226
 Alpha virt. eigenvalues --    0.02925   0.04104   0.06377   0.08183   0.09131
 Alpha virt. eigenvalues --    0.09371   0.09946   0.10146   0.11181   0.11933
 Alpha virt. eigenvalues --    0.12686   0.14294   0.14563   0.14830   0.15147

 Mulliken charges:
               1
     1  N   -0.312367
     2  C    0.182056
     3  C    0.055249
     4  N   -0.260718
     5  C    0.140814
     6  H    0.026227
     7  N   -0.294875
     8  C    0.132691
     9  H    0.011662
    10  N   -0.285409
    11  C    0.258644
    12  C    0.098682
    13  N   -0.057924
    14  H    0.111217
    15  H    0.081763
    16  H    0.023331
    17  H    0.029661
    18  H    0.027989
    19  N   -0.304606
    20  C    0.246774
    21  C    0.180879
    22  N   -0.109860
    23  H    0.113040
    24  H    0.114765
    25  N   -0.308305
    26  C    0.233386
    27  N   -0.141405
    28  H    0.116153
    29  C    0.190281
    30  O   -0.323262
    31  C   -0.017426
    32  N   -0.225182
    33  C    0.128499
    34  H    0.018679
    35  H    0.029182
    36  H    0.028287
    37  H    0.023279
    38  H    0.062767
    39  H    0.058337
    40  H    0.073242
    41  H    0.027123
    42  C   -0.115947
    43  O   -0.264559
    44  C    0.172541
    45  H    0.131257
    46  N   -0.122807
    47  O   -0.339872
    48  C    0.337201
    49  H    0.044270
    50  C    0.165997
    51  C    0.035553
    52  N   -0.278769
    53  H    0.035327
    54  H    0.038086
    55  H    0.030000
    56  H    0.121235
    57  H    0.116108
    58  N   -0.057011
    59  C    0.092538
    60  C    0.253847
    61  N   -0.275552
    62  H    0.037324
    63  C    0.170943
    64  N   -0.308578
    65  H    0.039081
    66  C    0.135533
    67  N   -0.261133
    68  C    0.012507
    69  C    0.180923
    70  N   -0.309366
 Sum of Mulliken charges =  -0.00000

 Dipole moment (field-independent basis, Debye):
    X=             -8.1741    Y=              6.3854    Z=             -2.0609  Tot=             10.5752
 Quadrupole moment (field-independent basis, Debye-Ang):
   XX=           -157.1055   YY=           -219.1648   ZZ=           -254.6037
   XY=              1.6211   XZ=             -7.8973   YZ=              8.8529

 Normal termination of Gaussian 16 at Wed Jan 24 05:16:06 2018.
