 Gaussian 16, Revision A.03,
 Gaussian 16:  EM64L-G16RevA.03 25-Dec-2016

 ---------------------------------------
 #p wb97xd/cc-pvdz sp scf=(maxcycles=20)
 ---------------------------------------

 ------------------
 Base pair stacking
 ------------------
 Symbolic Z-matrix:
 Charge =  0 Multiplicity = 1

                         Standard orientation:
 ---------------------------------------------------------------------
 Center     Atomic      Atomic             Coordinates (Angstroms)
 Number     Number       Type             X           Y           Z
 ---------------------------------------------------------------------
      1          7           0       -7.106400   -1.439126    0.189378
      2          6           0       -8.456658   -0.923213   -0.108352
      3          6           0       -4.957604   -1.583802    0.635565
      4          7           0       -5.433333   -2.886287    0.591281
      5          6           0       -6.708858   -2.746990    0.324236
      6          1           0       -7.412879   -3.572261    0.213695
      7          7           0       -3.544280    0.292390    0.848538
      8          6           0       -4.624370    1.039095    0.596736
      9          1           0       -4.454175    2.114838    0.587673
     10          7           0       -5.877259    0.658275    0.355574
     11          6           0       -5.977299   -0.680846    0.389760
     12          6           0       -3.677791   -1.051674    0.876061
     13          7           0       -2.600781   -1.798747    1.127249
     14          1           0       -2.653169   -2.797528    1.157308
     15          1           0       -1.705320   -1.385784    1.293869
     16          1           0       -9.091670   -1.214937    0.607066
     17          1           0       -8.432311    0.075410   -0.144152
     18          1           0       -8.764753   -1.279268   -0.990564
     19          7           0       -2.227058    2.448400   -1.649065
     20          6           0       -0.912463    2.159828   -1.372242
     21          6           0       -2.868816    3.765660   -1.465650
     22          7           0        2.217275    3.167985   -0.254168
     23          1           0        3.119856    2.759462   -0.121083
     24          1           0        2.117905    4.135237   -0.019079
     25          7           0        0.006443    3.024209   -0.890064
     26          6           0        1.185916    2.451729   -0.726602
     27          7           0        1.447576    1.133731   -1.012850
     28          1           0        2.379401    0.781217   -0.856701
     29          6           0        0.517385    0.226156   -1.509772
     30          8           0        0.856441   -0.942274   -1.734617
     31          6           0       -0.754479    0.826602   -1.690604
     32          7           0       -1.945914    0.288992   -2.157890
     33          6           0       -2.788712    1.285038   -2.115742
     34          1           0       -3.835819    1.225541   -2.414581
     35          1           0       -3.626412    3.682087   -0.819220
     36          1           0       -2.197746    4.414202   -1.108829
     37          1           0       -3.214813    4.094854   -2.343559
     38          1           0        7.028318   -0.517279    0.741489
     39          1           0        7.436286   -0.345174   -0.963970
     40          1           0        6.172445    0.660267   -0.254625
     41          1           0        5.303312   -4.657450   -0.999182
     42          6           0        5.031104   -3.602737   -0.957853
     43          8           0        2.761613   -3.976192   -1.538439
     44          6           0        3.682807   -3.215978   -1.241352
     45          1           0        2.504134   -1.546798   -1.354861
     46          7           0        3.445398   -1.858609   -1.161166
     47          8           0        4.045923    0.301443   -0.799529
     48          6           0        4.351353   -0.877232   -0.845408
     49          1           0        6.975418   -2.910445   -0.422885
     50          6           0        5.937295   -2.668566   -0.646807
     51          6           0        6.632829   -0.316486   -0.243058
     52          7           0        5.630139   -1.329084   -0.585106
     53          1           0        3.225373    4.145874    2.264444
     54          1           0        2.166868    3.946620    1.038898
     55          1           0        3.768614    3.789091    0.767442
     56          1           0        0.768558   -2.855306    2.149741
     57          1           0        2.353404   -2.440429    2.625403
     58          7           0        1.475863   -2.153984    2.239273
     59          6           0        1.259501   -0.892566    1.860896
     60          6           0        1.847877    1.389326    1.531450
     61          7           0        0.659557    1.745418    1.016151
     62          1           0       -1.151081    0.899755    0.561115
     63          6           0       -0.161075    0.697980    0.967854
     64          7           0        0.053756   -0.566218    1.346349
     65          1           0        4.894439    1.764609    2.546227
     66          6           0        3.908873    1.381420    2.280191
     67          7           0        3.525546    0.137982    2.436988
     68          6           0        2.220560    0.129306    1.966150
     69          6           0        3.033218    3.633910    1.427211
     70          7           0        2.943535    2.193818    1.737181
 ---------------------------------------------------------------------

 SCF Done:  E(RwB97XD) =  -2048.47189397     A.U. after   16 cycles

 The electronic state is 1-A.
 Alpha  occ. eigenvalues --  -19.25965 -19.21944 -19.20216 -14.52493 -14.52223
 Alpha  occ. eigenvalues --  -14.49510 -14.48479 -14.47904 -14.47581 -14.45727
 Alpha  occ. eigenvalues --  -14.45374 -14.44948 -14.43609 -14.43041 -14.42923
 Alpha  occ. eigenvalues --  -14.42213 -14.41785 -14.40984 -14.40846 -14.40558
 Alpha  occ. eigenvalues --  -10.45576 -10.41435 -10.40078 -10.39319 -10.37808
 Alpha  occ. eigenvalues --  -10.37798 -10.37609 -10.36431 -10.36254 -10.35476
 Alpha  occ. eigenvalues --  -10.34862 -10.34686 -10.34188 -10.34126 -10.33996
 Alpha  occ. eigenvalues --  -10.33157 -10.32995 -10.32142 -10.31509 -10.31106
 Alpha  occ. eigenvalues --  -10.30711 -10.29387 -10.27916  -1.19522  -1.16491
 Alpha  occ. eigenvalues --   -1.13261  -1.12985  -1.12128  -1.10454  -1.10097
 Alpha  occ. eigenvalues --   -1.09375  -1.08931  -1.05828  -1.04986  -1.03672
 Alpha  occ. eigenvalues --   -1.02512  -1.01278  -0.99271  -0.98254  -0.97725
 Alpha  occ. eigenvalues --   -0.96531  -0.96345  -0.93484  -0.91078  -0.88963
 Alpha  occ. eigenvalues --   -0.86653  -0.84704  -0.83793  -0.83539  -0.83026
 Alpha  occ. eigenvalues --   -0.82313  -0.78908  -0.77076  -0.75158  -0.74748
 Alpha  occ. eigenvalues --   -0.74316  -0.73717  -0.73400  -0.71912  -0.70927
 Alpha  occ. eigenvalues --   -0.69581  -0.67400  -0.67101  -0.66562  -0.65666
 Alpha  occ. eigenvalues --   -0.64454  -0.63991  -0.63552  -0.63171  -0.63003
 Alpha  occ. eigenvalues --   -0.61550  -0.60977  -0.60545  -0.60055  -0.59535
 Alpha  occ. eigenvalues --   -0.59477  -0.59005  -0.57337  -0.57028  -0.56731
 Alpha  occ. eigenvalues --   -0.56222  -0.55775  -0.55027  -0.54432  -0.54353
 Alpha  occ. eigenvalues --   -0.53713  -0.53420  -0.52854  -0.52754  -0.52514
 Alpha  occ. eigenvalues --   -0.52422  -0.51969  -0.51768  -0.51473  -0.50912
 Alpha  occ. eigenvalues --   -0.50005  -0.49849  -0.49522  -0.49423  -0.48692
 Alpha  occ. eigenvalues --   -0.48412  -0.48154  -0.47792  -0.47682  -0.47536
 Alpha  occ. eigenvalues --   -0.47187  -0.45799  -0.45366  -0.44027  -0.42426
 Alpha  occ. eigenvalues --   -0.42024  -0.39543  -0.39029  -0.38015  -0.37639
 Alpha  occ. eigenvalues --   -0.36961  -0.36930  -0.36351  -0.35804  -0.34882
 Alpha  occ. eigenvalues --   -0.34335  -0.34241  -0.33128  -0.32809  -0.32583
 Alpha  occ. eigenvalues --   -0.32163  -0.31970  -0.31764  -0.31547  -0.31445
 Alpha  occ. eigenvalues --   -0.31197  -0.28760  -0.26629  -0.23949
 Alpha virt. eigenvalues --    0.03113   0.03553   0.06858   0.07132   0.08194
 Alpha virt. eigenvalues --    0.09105   0.09520   0.10080   0.10653   0.12522
 Alpha virt. eigenvalues --    0.12705   0.13615   0.13795   0.14098   0.15250

 Mulliken charges:
               1
     1  N   -0.312162
     2  C    0.180806
     3  C    0.034151
     4  N   -0.259964
     5  C    0.135650
     6  H    0.029236
     7  N   -0.282861
     8  C    0.120677
     9  H    0.011444
    10  N   -0.284947
    11  C    0.244397
    12  C    0.122360
    13  N   -0.057631
    14  H    0.107153
    15  H    0.088310
    16  H    0.026749
    17  H    0.035404
    18  H    0.027826
    19  N   -0.304176
    20  C    0.204620
    21  C    0.186069
    22  N   -0.046919
    23  H    0.123097
    24  H    0.087542
    25  N   -0.246138
    26  C    0.137971
    27  N   -0.095526
    28  H    0.120556
    29  C    0.133792
    30  O   -0.322119
    31  C   -0.001386
    32  N   -0.217855
    33  C    0.126742
    34  H    0.030990
    35  H    0.018087
    36  H    0.027175
    37  H    0.024939
    38  H    0.061294
    39  H    0.060507
    40  H    0.069255
    41  H    0.031917
    42  C   -0.111551
    43  O   -0.264159
    44  C    0.179678
    45  H    0.134573
    46  N   -0.139735
    47  O   -0.350403
    48  C    0.366695
    49  H    0.047617
    50  C    0.172181
    51  C    0.042865
    52  N   -0.296645
    53  H   -0.008197
    54  H    0.038149
    55  H   -0.021234
    56  H    0.121407
    57  H    0.117659
    58  N   -0.067472
    59  C    0.121537
    60  C    0.225572
    61  N   -0.257416
    62  H    0.076948
    63  C    0.157609
    64  N   -0.298105
    65  H    0.031089
    66  C    0.134614
    67  N   -0.262989
    68  C    0.028608
    69  C    0.235184
    70  N   -0.331109
 Sum of Mulliken charges =  -0.00000

 Dipole moment (field-independent basis, Debye):
    X=              6.7516    Y=              5.0581    Z=              4.0625  Tot=              9.3633
 Quadrupole moment (field-independent basis, Debye-Ang):
   XX=           -143.9656   YY=           -225.4203   ZZ=           -255.1998
   XY=              6.3090   XZ=             13.4235   YZ=            -13.7882

 Normal termination of Gaussian 16 at Wed Jan 24 03:08:42 2018.
