 Gaussian 16, Revision A.03,
 Gaussian 16:  EM64L-G16RevA.03 25-Dec-2016

 ---------------------------------------
 #p wb97xd/cc-pvdz sp scf=(maxcycles=20)
 ---------------------------------------

 ------------------
 Base pair stacking
 ------------------
 Symbolic Z-matrix:
 Charge =  0 Multiplicity = 1

                         Standard orientation:
 ---------------------------------------------------------------------
 Center     Atomic      Atomic             Coordinates (Angstroms)
 Number     Number       Type             X           Y           Z
 ---------------------------------------------------------------------
      1          7           0        4.569590   -2.015599   -1.765097
      2          6           0        5.954698   -1.610668   -2.074158
      3          6           0        2.388203   -2.017235   -1.484307
      4          7           0        2.826042   -3.285116   -1.130051
      5          6           0        4.122732   -3.233379   -1.313388
      6          1           0        4.807928   -4.062185   -1.133071
      7          7           0        1.020059   -0.144851   -1.914779
      8          6           0        2.139311    0.496494   -2.266228
      9          1           0        2.003276    1.529572   -2.583248
     10          7           0        3.395492    0.055369   -2.284784
     11          6           0        3.451557   -1.223582   -1.877892
     12          6           0        1.109871   -1.430605   -1.510012
     13          7           0       -0.006286   -2.072489   -1.158784
     14          1           0        0.013019   -3.024994   -0.852862
     15          1           0       -0.899340   -1.623422   -1.189454
     16          1           0        6.322175   -2.198210   -2.795215
     17          1           0        5.963802   -0.660097   -2.383104
     18          1           0        6.520613   -1.698376   -1.254376
     19          7           0        4.911237    2.493671    0.822155
     20          6           0        3.560486    2.284292    0.962447
     21          6           0        5.545893    3.788584    0.504149
     22          7           0        0.308971    3.504444    0.936882
     23          1           0       -0.613993    3.147372    1.077824
     24          1           0        0.391174    4.478804    0.725735
     25          7           0        2.593866    3.218785    0.834378
     26          6           0        1.388536    2.713012    1.026756
     27          7           0        1.146226    1.393318    1.322060
     28          1           0        0.191878    1.094880    1.452883
     29          6           0        2.125399    0.414316    1.458611
     30          8           0        1.800049   -0.748845    1.726842
     31          6           0        3.425493    0.942593    1.254740
     32          7           0        4.666512    0.322145    1.297097
     33          6           0        5.515435    1.278668    1.035128
     34          1           0        6.597424    1.152084    0.984752
     35          1           0        6.056112    3.710353   -0.351638
     36          1           0        4.839608    4.488568    0.406954
     37          1           0        6.169548    4.045998    1.241439
     38          1           0       -4.796468    0.115841    1.349767
     39          1           0       -4.638243    0.200104    3.102630
     40          1           0       -3.598601    1.187998    2.075697
     41          1           0       -2.880760   -4.200400    2.269908
     42          6           0       -2.568543   -3.158948    2.191665
     43          8           0       -0.260021   -3.672862    2.007994
     44          6           0       -1.177506   -2.853650    2.051432
     45          1           0        0.081292   -1.251342    1.860784
     46          7           0       -0.891151   -1.506414    1.960821
     47          8           0       -1.435789    0.697519    1.904049
     48          6           0       -1.785951   -0.466257    1.991594
     49          1           0       -4.534329   -2.345104    2.329995
     50          6           0       -3.465101   -2.166129    2.224870
     51          6           0       -4.100723    0.236300    2.166767
     52          7           0       -3.108008   -0.841119    2.128950
     53          1           0       -5.766048    3.884955   -2.540702
     54          1           0       -4.376329    3.958190   -1.688992
     55          1           0       -5.810749    4.106166   -0.924387
     56          1           0       -3.546950   -2.957214   -0.716983
     57          1           0       -5.191753   -2.517138   -0.822163
     58          7           0       -4.231146   -2.237328   -0.834442
     59          6           0       -3.879246   -0.960662   -1.000141
     60          6           0       -4.284278    1.360756   -1.329878
     61          7           0       -2.986546    1.707406   -1.342162
     62          1           0       -1.143324    0.827683   -1.171222
     63          6           0       -2.215321    0.635114   -1.173957
     64          7           0       -2.565861   -0.644378   -1.007822
     65          1           0       -7.486899    1.778489   -1.474372
     66          6           0       -6.476144    1.377850   -1.391866
     67          7           0       -6.188755    0.112112   -1.210266
     68          6           0       -4.802242    0.087408   -1.169151
     69          6           0       -5.327571    3.651603   -1.672785
     70          7           0       -5.371371    2.189999   -1.473304
 ---------------------------------------------------------------------

 SCF Done:  E(RwB97XD) =  -2048.74934018     A.U. after   15 cycles

 The electronic state is 1-A.
 Alpha  occ. eigenvalues --  -19.25473 -19.21638 -19.20593 -14.52584 -14.52048
 Alpha  occ. eigenvalues --  -14.48988 -14.48817 -14.47982 -14.47372 -14.46847
 Alpha  occ. eigenvalues --  -14.46666 -14.45566 -14.44833 -14.44656 -14.42500
 Alpha  occ. eigenvalues --  -14.42085 -14.41206 -14.40653 -14.40605 -14.40244
 Alpha  occ. eigenvalues --  -10.45070 -10.41275 -10.40422 -10.39760 -10.38244
 Alpha  occ. eigenvalues --  -10.38138 -10.37672 -10.37464 -10.36169 -10.35345
 Alpha  occ. eigenvalues --  -10.34593 -10.34489 -10.33938 -10.33625 -10.33369
 Alpha  occ. eigenvalues --  -10.32966 -10.32834 -10.32829 -10.31109 -10.30840
 Alpha  occ. eigenvalues --  -10.30171 -10.28247 -10.28076  -1.19022  -1.15376
 Alpha  occ. eigenvalues --   -1.13227  -1.12653  -1.10724  -1.10632  -1.09779
 Alpha  occ. eigenvalues --   -1.08926  -1.08578  -1.05251  -1.04870  -1.02039
 Alpha  occ. eigenvalues --   -1.01163  -1.00319  -0.99752  -0.98616  -0.97282
 Alpha  occ. eigenvalues --   -0.96767  -0.96314  -0.92570  -0.90798  -0.87875
 Alpha  occ. eigenvalues --   -0.86052  -0.84274  -0.83355  -0.83180  -0.82653
 Alpha  occ. eigenvalues --   -0.81715  -0.78557  -0.77353  -0.75155  -0.74730
 Alpha  occ. eigenvalues --   -0.73662  -0.72972  -0.72575  -0.70786  -0.70638
 Alpha  occ. eigenvalues --   -0.67439  -0.67159  -0.66203  -0.65975  -0.64542
 Alpha  occ. eigenvalues --   -0.64396  -0.63647  -0.62655  -0.62428  -0.61835
 Alpha  occ. eigenvalues --   -0.60852  -0.60501  -0.60219  -0.59547  -0.59276
 Alpha  occ. eigenvalues --   -0.59116  -0.58376  -0.56798  -0.56274  -0.55779
 Alpha  occ. eigenvalues --   -0.55547  -0.55507  -0.55276  -0.54648  -0.54167
 Alpha  occ. eigenvalues --   -0.53850  -0.53595  -0.53512  -0.53037  -0.53021
 Alpha  occ. eigenvalues --   -0.52613  -0.52041  -0.51219  -0.50323  -0.50217
 Alpha  occ. eigenvalues --   -0.50100  -0.49732  -0.49535  -0.49194  -0.48844
 Alpha  occ. eigenvalues --   -0.48556  -0.48277  -0.48067  -0.47874  -0.47219
 Alpha  occ. eigenvalues --   -0.46520  -0.45678  -0.45467  -0.44504  -0.43457
 Alpha  occ. eigenvalues --   -0.40955  -0.40916  -0.39135  -0.37997  -0.37872
 Alpha  occ. eigenvalues --   -0.37418  -0.37354  -0.36674  -0.35532  -0.35146
 Alpha  occ. eigenvalues --   -0.34711  -0.34057  -0.33166  -0.33120  -0.32866
 Alpha  occ. eigenvalues --   -0.32644  -0.32583  -0.31946  -0.31770  -0.30426
 Alpha  occ. eigenvalues --   -0.30306  -0.30145  -0.25825  -0.25340
 Alpha virt. eigenvalues --    0.03115   0.03955   0.06526   0.08306   0.08921
 Alpha virt. eigenvalues --    0.09183   0.09711   0.10340   0.11240   0.11563
 Alpha virt. eigenvalues --    0.13465   0.14350   0.14572   0.14744   0.14954

 Mulliken charges:
               1
     1  N   -0.310585
     2  C    0.182874
     3  C    0.056656
     4  N   -0.257088
     5  C    0.145699
     6  H    0.026751
     7  N   -0.295944
     8  C    0.128755
     9  H    0.010719
    10  N   -0.282263
    11  C    0.255893
    12  C    0.090509
    13  N   -0.067950
    14  H    0.115020
    15  H    0.082731
    16  H    0.021027
    17  H    0.029711
    18  H    0.029883
    19  N   -0.310456
    20  C    0.257522
    21  C    0.181249
    22  N   -0.123548
    23  H    0.119609
    24  H    0.117780
    25  N   -0.312540
    26  C    0.248203
    27  N   -0.143087
    28  H    0.118488
    29  C    0.189371
    30  O   -0.320782
    31  C   -0.011476
    32  N   -0.231606
    33  C    0.124466
    34  H    0.021541
    35  H    0.027903
    36  H    0.029932
    37  H    0.024674
    38  H    0.066555
    39  H    0.058615
    40  H    0.075536
    41  H    0.025758
    42  C   -0.122934
    43  O   -0.262935
    44  C    0.170403
    45  H    0.133361
    46  N   -0.125121
    47  O   -0.349428
    48  C    0.353407
    49  H    0.041447
    50  C    0.169142
    51  C    0.034360
    52  N   -0.278426
    53  H    0.034395
    54  H    0.040747
    55  H    0.029819
    56  H    0.118731
    57  H    0.117725
    58  N   -0.062334
    59  C    0.088400
    60  C    0.249405
    61  N   -0.272856
    62  H    0.031321
    63  C    0.177844
    64  N   -0.314704
    65  H    0.039739
    66  C    0.138498
    67  N   -0.260373
    68  C    0.014059
    69  C    0.180802
    70  N   -0.310597
 Sum of Mulliken charges =  -0.00000

 Dipole moment (field-independent basis, Debye):
    X=             -8.0804    Y=              6.8887    Z=             -0.7878  Tot=             10.6475
 Quadrupole moment (field-independent basis, Debye-Ang):
   XX=           -162.3940   YY=           -218.0531   ZZ=           -251.4937
   XY=              3.7855   XZ=            -14.6072   YZ=              6.2508

 Normal termination of Gaussian 16 at Wed Jan 24 07:10:48 2018.
