 Gaussian 16, Revision A.03,
 Gaussian 16:  EM64L-G16RevA.03 25-Dec-2016

 ---------------------------------------
 #p wb97xd/cc-pvdz sp scf=(maxcycles=20)
 ---------------------------------------

 ------------------
 Base pair stacking
 ------------------
 Symbolic Z-matrix:
 Charge =  0 Multiplicity = 1

                         Standard orientation:
 ---------------------------------------------------------------------
 Center     Atomic      Atomic             Coordinates (Angstroms)
 Number     Number       Type             X           Y           Z
 ---------------------------------------------------------------------
      1          7           0       -6.663973   -1.512669    0.451609
      2          6           0       -8.039620   -0.991844    0.331845
      3          6           0       -4.489529   -1.671992    0.740934
      4          7           0       -4.941836   -2.957740    0.482104
      5          6           0       -6.233750   -2.810295    0.318156
      6          1           0       -6.927147   -3.621946    0.095993
      7          7           0       -3.102317    0.174647    1.218967
      8          6           0       -4.210001    0.921908    1.171915
      9          1           0       -4.061481    1.985502    1.353518
     10          7           0       -5.467700    0.554320    0.935322
     11          6           0       -5.539586   -0.770513    0.725416
     12          6           0       -3.207919   -1.154820    1.003506
     13          7           0       -2.103334   -1.902415    1.050060
     14          1           0       -2.134483   -2.890718    0.896708
     15          1           0       -1.207499   -1.500338    1.239705
     16          1           0       -8.623947   -1.429703    1.015228
     17          1           0       -8.036809   -0.003503    0.481115
     18          1           0       -8.394164   -1.188164   -0.582349
     19          7           0       -2.695902    2.594881   -1.687119
     20          6           0       -1.369678    2.298717   -1.483501
     21          6           0       -3.306121    3.930503   -1.530815
     22          7           0        1.841423    3.309940   -0.630275
     23          1           0        2.745330    2.893593   -0.536214
     24          1           0        1.771101    4.289550   -0.440163
     25          7           0       -0.408889    3.171087   -1.109442
     26          6           0        0.771097    2.587899   -0.994920
     27          7           0        0.995173    1.252682   -1.228396
     28          1           0        1.930564    0.892952   -1.116226
     29          6           0        0.021564    0.336624   -1.614122
     30          8           0        0.328992   -0.847396   -1.799408
     31          6           0       -1.251398    0.948404   -1.741292
     32          7           0       -2.478673    0.407710   -2.099537
     33          6           0       -3.303266    1.418731   -2.053784
     34          1           0       -4.368796    1.361663   -2.278861
     35          1           0       -4.019589    3.893123   -0.831973
     36          1           0       -2.603920    4.585096   -1.253884
     37          1           0       -3.705907    4.219923   -2.399852
     38          1           0        6.658537   -0.400111    0.235439
     39          1           0        6.953195   -0.322873   -1.500038
     40          1           0        5.753535    0.738954   -0.761993
     41          1           0        4.764906   -4.594543   -1.167221
     42          6           0        4.510286   -3.534649   -1.163281
     43          8           0        2.202087   -3.899011   -1.571384
     44          6           0        3.151311   -3.140226   -1.376459
     45          1           0        1.990211   -1.459384   -1.498783
     46          7           0        2.938095   -1.776698   -1.351973
     47          8           0        3.590557    0.388614   -1.144830
     48          6           0        3.876347   -0.795858   -1.149024
     49          1           0        6.495303   -2.848766   -0.795721
     50          6           0        5.447816   -2.601191   -0.962548
     51          6           0        6.200494   -0.243566   -0.729839
     52          7           0        5.163548   -1.255295   -0.950920
     53          1           0        3.665589    3.904096    2.942077
     54          1           0        2.538156    3.902429    1.762669
     55          1           0        4.123042    3.846336    1.376566
     56          1           0        1.342006   -3.026877    1.666083
     57          1           0        2.944665   -2.659052    2.120271
     58          7           0        2.039783   -2.333005    1.844395
     59          6           0        1.776372   -1.030570    1.720099
     60          6           0        2.299319    1.289689    1.788159
     61          7           0        1.075059    1.698569    1.416086
     62          1           0       -0.743346    0.896900    0.914755
     63          6           0        0.273388    0.653634    1.220254
     64          7           0        0.535342   -0.651585    1.344221
     65          1           0        5.394433    1.563454    2.681191
     66          6           0        4.402022    1.206234    2.404665
     67          7           0        4.053082   -0.055828    2.348832
     68          6           0        2.722160   -0.017018    1.959120
     69          6           0        3.432505    3.549848    2.036444
     70          7           0        3.389770    2.075234    2.077690
 ---------------------------------------------------------------------

 SCF Done:  E(RwB97XD) =  -2048.72948375     A.U. after   15 cycles

 The electronic state is 1-A.
 Alpha  occ. eigenvalues --  -19.25928 -19.22090 -19.20644 -14.52462 -14.51928
 Alpha  occ. eigenvalues --  -14.49006 -14.48713 -14.47943 -14.47260 -14.46689
 Alpha  occ. eigenvalues --  -14.46636 -14.44884 -14.43339 -14.42870 -14.42433
 Alpha  occ. eigenvalues --  -14.42086 -14.41666 -14.41194 -14.40712 -14.40377
 Alpha  occ. eigenvalues --  -10.45549 -10.41189 -10.40207 -10.39028 -10.38209
 Alpha  occ. eigenvalues --  -10.37870 -10.37455 -10.36358 -10.35648 -10.35248
 Alpha  occ. eigenvalues --  -10.34795 -10.34348 -10.34327 -10.33852 -10.33616
 Alpha  occ. eigenvalues --  -10.33368 -10.33159 -10.31836 -10.31169 -10.31165
 Alpha  occ. eigenvalues --  -10.30797 -10.28782 -10.28102  -1.19494  -1.14588
 Alpha  occ. eigenvalues --   -1.13273  -1.13105  -1.11591  -1.10555  -1.09353
 Alpha  occ. eigenvalues --   -1.08691  -1.08308  -1.05215  -1.03925  -1.02564
 Alpha  occ. eigenvalues --   -1.00679  -1.00489  -0.99812  -0.98543  -0.97203
 Alpha  occ. eigenvalues --   -0.96523  -0.95931  -0.92872  -0.91105  -0.87031
 Alpha  occ. eigenvalues --   -0.85548  -0.84180  -0.84084  -0.83665  -0.82544
 Alpha  occ. eigenvalues --   -0.82459  -0.78925  -0.76336  -0.74670  -0.74050
 Alpha  occ. eigenvalues --   -0.73712  -0.73419  -0.73139  -0.71311  -0.69760
 Alpha  occ. eigenvalues --   -0.67441  -0.66606  -0.66545  -0.66097  -0.64494
 Alpha  occ. eigenvalues --   -0.63781  -0.63638  -0.62935  -0.62754  -0.61868
 Alpha  occ. eigenvalues --   -0.60485  -0.60063  -0.59867  -0.59550  -0.59325
 Alpha  occ. eigenvalues --   -0.58924  -0.58339  -0.56941  -0.56691  -0.56580
 Alpha  occ. eigenvalues --   -0.56016  -0.55627  -0.55339  -0.54717  -0.54396
 Alpha  occ. eigenvalues --   -0.53689  -0.53576  -0.53091  -0.52950  -0.52614
 Alpha  occ. eigenvalues --   -0.52432  -0.52128  -0.51972  -0.50991  -0.50428
 Alpha  occ. eigenvalues --   -0.50151  -0.49495  -0.49429  -0.48909  -0.48781
 Alpha  occ. eigenvalues --   -0.48681  -0.48274  -0.48126  -0.47970  -0.47424
 Alpha  occ. eigenvalues --   -0.47194  -0.45712  -0.45243  -0.44050  -0.43319
 Alpha  occ. eigenvalues --   -0.41427  -0.40024  -0.39497  -0.37484  -0.37419
 Alpha  occ. eigenvalues --   -0.37252  -0.37040  -0.36625  -0.35879  -0.34294
 Alpha  occ. eigenvalues --   -0.34009  -0.33729  -0.33616  -0.33259  -0.32827
 Alpha  occ. eigenvalues --   -0.32677  -0.32359  -0.32018  -0.31812  -0.31128
 Alpha  occ. eigenvalues --   -0.30605  -0.28875  -0.26018  -0.25438
 Alpha virt. eigenvalues --    0.02983   0.04666   0.07497   0.07664   0.08795
 Alpha virt. eigenvalues --    0.09186   0.09484   0.10727   0.11323   0.11779
 Alpha virt. eigenvalues --    0.12784   0.13901   0.14415   0.14639   0.14770

 Mulliken charges:
               1
     1  N   -0.311832
     2  C    0.180788
     3  C    0.039438
     4  N   -0.259486
     5  C    0.134260
     6  H    0.027264
     7  N   -0.287671
     8  C    0.127287
     9  H    0.010993
    10  N   -0.290134
    11  C    0.242241
    12  C    0.122535
    13  N   -0.054584
    14  H    0.108550
    15  H    0.088654
    16  H    0.025952
    17  H    0.033727
    18  H    0.026454
    19  N   -0.308732
    20  C    0.235950
    21  C    0.180607
    22  N   -0.097170
    23  H    0.113594
    24  H    0.115620
    25  N   -0.290513
    26  C    0.206984
    27  N   -0.116636
    28  H    0.117198
    29  C    0.139010
    30  O   -0.317258
    31  C    0.019173
    32  N   -0.222850
    33  C    0.126506
    34  H    0.028275
    35  H    0.029551
    36  H    0.027616
    37  H    0.024341
    38  H    0.062406
    39  H    0.059191
    40  H    0.071486
    41  H    0.030897
    42  C   -0.115251
    43  O   -0.267216
    44  C    0.171417
    45  H    0.135781
    46  N   -0.132297
    47  O   -0.349228
    48  C    0.357985
    49  H    0.048172
    50  C    0.174762
    51  C    0.041213
    52  N   -0.290669
    53  H    0.036699
    54  H    0.036449
    55  H    0.022396
    56  H    0.124904
    57  H    0.115009
    58  N   -0.064605
    59  C    0.101445
    60  C    0.221819
    61  N   -0.262569
    62  H    0.054615
    63  C    0.160722
    64  N   -0.299455
    65  H    0.030917
    66  C    0.132648
    67  N   -0.264980
    68  C    0.026589
    69  C    0.163995
    70  N   -0.310954
 Sum of Mulliken charges =  -0.00000

 Dipole moment (field-independent basis, Debye):
    X=              7.6344    Y=              5.7246    Z=              2.8194  Tot=              9.9501
 Quadrupole moment (field-independent basis, Debye-Ang):
   XX=           -147.8340   YY=           -221.0048   ZZ=           -253.8219
   XY=              3.8680   XZ=              9.7305   YZ=             -9.5373

 Normal termination of Gaussian 16 at Wed Jan 24 05:50:35 2018.
