 Gaussian 16, Revision A.03,
 Gaussian 16:  EM64L-G16RevA.03 25-Dec-2016

 ---------------------------------------
 #p wb97xd/cc-pvdz sp scf=(maxcycles=20)
 ---------------------------------------

 ------------------
 Base pair stacking
 ------------------
 Symbolic Z-matrix:
 Charge =  0 Multiplicity = 1

                         Standard orientation:
 ---------------------------------------------------------------------
 Center     Atomic      Atomic             Coordinates (Angstroms)
 Number     Number       Type             X           Y           Z
 ---------------------------------------------------------------------
      1          7           0       -6.605296   -1.496313    0.494974
      2          6           0       -7.968344   -0.985251    0.252240
      3          6           0       -4.441007   -1.632999    0.861724
      4          7           0       -4.910565   -2.937775    0.819052
      5          6           0       -6.195670   -2.803200    0.599800
      6          1           0       -6.898493   -3.631430    0.504825
      7          7           0       -3.031683    0.249217    1.046043
      8          6           0       -4.124406    0.992173    0.842230
      9          1           0       -3.960802    2.068974    0.839903
     10          7           0       -5.382974    0.606515    0.641821
     11          6           0       -5.474064   -0.733511    0.663598
     12          6           0       -3.156419   -1.095861    1.062313
     13          7           0       -2.066785   -1.839202    1.265608
     14          1           0       -2.112347   -2.838573    1.285601
     15          1           0       -1.168280   -1.422714    1.404779
     16          1           0       -8.575459   -1.289250    0.986532
     17          1           0       -7.951034    0.013856    0.227519
     18          1           0       -8.306042   -1.332830   -0.622489
     19          7           0       -2.793040    2.465533   -1.607172
     20          6           0       -1.467683    2.181822   -1.381339
     21          6           0       -3.435292    3.776589   -1.385045
     22          7           0        1.694547    3.196023   -0.364756
     23          1           0        2.603653    2.791518   -0.269148
     24          1           0        1.598193    4.159823   -0.114707
     25          7           0       -0.536936    3.046122   -0.922281
     26          6           0        0.650928    2.479029   -0.808259
     27          7           0        0.909608    1.166115   -1.119458
     28          1           0        1.848478    0.817527   -1.001195
     29          6           0       -0.032685    0.258727   -1.593364
     30          8           0        0.304716   -0.904880   -1.844211
     31          6           0       -1.313665    0.853417   -1.721082
     32          7           0       -2.518090    0.314009   -2.151542
     33          6           0       -3.364507    1.304301   -2.067176
     34          1           0       -4.421358    1.241869   -2.328815
     35          1           0       -4.168573    3.680776   -0.712796
     36          1           0       -2.755496    4.425011   -1.044915
     37          1           0       -3.814611    4.113918   -2.245940
     38          1           0        6.559386   -0.471020    0.412918
     39          1           0        6.904560   -0.276418   -1.303958
     40          1           0        5.661403    0.712843   -0.537592
     41          1           0        4.796407   -4.601020   -1.313812
     42          6           0        4.519834   -3.548557   -1.250129
     43          8           0        2.233048   -3.929124   -1.753008
     44          6           0        3.160002   -3.166793   -1.480242
     45          1           0        1.968459   -1.503681   -1.531285
     46          7           0        2.917880   -1.811943   -1.375355
     47          8           0        3.518692    0.347367   -1.009804
     48          6           0        3.829009   -0.828785   -1.080733
     49          1           0        6.478189   -2.850649   -0.777294
     50          6           0        5.431295   -2.612548   -0.960779
     51          6           0        6.127490   -0.261126   -0.554286
     52          7           0        5.118919   -1.275788   -0.872069
     53          1           0        3.762504    4.127380    2.263145
     54          1           0        2.661626    3.936013    1.074215
     55          1           0        4.253397    3.791522    0.743390
     56          1           0        1.343246   -2.886945    2.153402
     57          1           0        2.941816   -2.467942    2.576593
     58          7           0        2.049297   -2.182386    2.225771
     59          6           0        1.812201   -0.917961    1.870511
     60          6           0        2.375237    1.371207    1.547368
     61          7           0        1.167087    1.726001    1.079479
     62          1           0       -0.653920    0.874616    0.679895
     63          6           0        0.351257    0.674174    1.048277
     64          7           0        0.586839   -0.593026    1.403658
     65          1           0        5.454244    1.753283    2.456165
     66          6           0        4.461933    1.367186    2.221253
     67          7           0        4.091625    0.119659    2.376890
     68          6           0        2.770578    0.108486    1.953291
     69          6           0        3.543188    3.624096    1.427316
     70          7           0        3.472989    2.179944    1.723097
 ---------------------------------------------------------------------

 SCF Done:  E(RwB97XD) =  -2048.61448911     A.U. after   15 cycles

 The electronic state is 1-A.
 Alpha  occ. eigenvalues --  -19.25912 -19.21918 -19.20656 -14.52404 -14.52238
 Alpha  occ. eigenvalues --  -14.49205 -14.48731 -14.47905 -14.47566 -14.46314
 Alpha  occ. eigenvalues --  -14.45103 -14.44971 -14.43560 -14.42788 -14.42266
 Alpha  occ. eigenvalues --  -14.41883 -14.41812 -14.41451 -14.40692 -14.40603
 Alpha  occ. eigenvalues --  -10.45506 -10.41128 -10.40050 -10.39209 -10.38158
 Alpha  occ. eigenvalues --  -10.37747 -10.37666 -10.36597 -10.35935 -10.35177
 Alpha  occ. eigenvalues --  -10.35031 -10.34537 -10.34354 -10.33916 -10.33851
 Alpha  occ. eigenvalues --  -10.33628 -10.33116 -10.31889 -10.31322 -10.31063
 Alpha  occ. eigenvalues --  -10.30848 -10.29020 -10.28102  -1.19499  -1.15206
 Alpha  occ. eigenvalues --   -1.13602  -1.12962  -1.11802  -1.10629  -1.09442
 Alpha  occ. eigenvalues --   -1.09283  -1.08331  -1.05478  -1.04124  -1.02496
 Alpha  occ. eigenvalues --   -1.01396  -1.00972  -0.99680  -0.98712  -0.97429
 Alpha  occ. eigenvalues --   -0.96682  -0.96109  -0.93145  -0.91007  -0.87457
 Alpha  occ. eigenvalues --   -0.86241  -0.84404  -0.84059  -0.83603  -0.82754
 Alpha  occ. eigenvalues --   -0.82538  -0.78851  -0.76915  -0.75171  -0.74577
 Alpha  occ. eigenvalues --   -0.73654  -0.73395  -0.73352  -0.71589  -0.70308
 Alpha  occ. eigenvalues --   -0.67609  -0.66834  -0.66807  -0.66463  -0.64466
 Alpha  occ. eigenvalues --   -0.64264  -0.63775  -0.63260  -0.63042  -0.62478
 Alpha  occ. eigenvalues --   -0.60785  -0.60653  -0.60256  -0.59582  -0.59499
 Alpha  occ. eigenvalues --   -0.59288  -0.57906  -0.57715  -0.56914  -0.56782
 Alpha  occ. eigenvalues --   -0.56275  -0.56028  -0.55690  -0.54760  -0.54305
 Alpha  occ. eigenvalues --   -0.54035  -0.53513  -0.53106  -0.52919  -0.52720
 Alpha  occ. eigenvalues --   -0.52354  -0.52177  -0.51881  -0.51253  -0.50621
 Alpha  occ. eigenvalues --   -0.50085  -0.49694  -0.49408  -0.49208  -0.48768
 Alpha  occ. eigenvalues --   -0.48672  -0.48455  -0.48242  -0.48050  -0.47422
 Alpha  occ. eigenvalues --   -0.47347  -0.46478  -0.45414  -0.43897  -0.42980
 Alpha  occ. eigenvalues --   -0.41691  -0.40216  -0.39525  -0.37748  -0.37701
 Alpha  occ. eigenvalues --   -0.37428  -0.37333  -0.36458  -0.35918  -0.34682
 Alpha  occ. eigenvalues --   -0.34265  -0.33922  -0.33848  -0.33123  -0.32670
 Alpha  occ. eigenvalues --   -0.32431  -0.31906  -0.31839  -0.31313  -0.30934
 Alpha  occ. eigenvalues --   -0.29401  -0.27855  -0.26321  -0.25296
 Alpha virt. eigenvalues --    0.03133   0.04137   0.07340   0.07531   0.08648
 Alpha virt. eigenvalues --    0.08951   0.09278   0.10504   0.11533   0.12085
 Alpha virt. eigenvalues --    0.12943   0.13790   0.14018   0.14632   0.14699

 Mulliken charges:
               1
     1  N   -0.312883
     2  C    0.180798
     3  C    0.039980
     4  N   -0.260550
     5  C    0.135059
     6  H    0.027992
     7  N   -0.284907
     8  C    0.131812
     9  H    0.006489
    10  N   -0.289188
    11  C    0.245861
    12  C    0.121137
    13  N   -0.056834
    14  H    0.107207
    15  H    0.087122
    16  H    0.026185
    17  H    0.033324
    18  H    0.027525
    19  N   -0.302673
    20  C    0.227129
    21  C    0.179421
    22  N   -0.076096
    23  H    0.095538
    24  H    0.108113
    25  N   -0.274753
    26  C    0.209644
    27  N   -0.114778
    28  H    0.120263
    29  C    0.126608
    30  O   -0.316356
    31  C    0.034386
    32  N   -0.219683
    33  C    0.117396
    34  H    0.027800
    35  H    0.028976
    36  H    0.027666
    37  H    0.025001
    38  H    0.062463
    39  H    0.058933
    40  H    0.071670
    41  H    0.031391
    42  C   -0.113320
    43  O   -0.264115
    44  C    0.179034
    45  H    0.134162
    46  N   -0.135885
    47  O   -0.347046
    48  C    0.360571
    49  H    0.047494
    50  C    0.172358
    51  C    0.040836
    52  N   -0.292222
    53  H    0.035015
    54  H    0.008702
    55  H    0.030868
    56  H    0.120984
    57  H    0.116167
    58  N   -0.069773
    59  C    0.105524
    60  C    0.248935
    61  N   -0.303800
    62  H    0.058717
    63  C    0.181643
    64  N   -0.303092
    65  H    0.031965
    66  C    0.130281
    67  N   -0.259975
    68  C    0.018710
    69  C    0.177953
    70  N   -0.324886
 Sum of Mulliken charges =  -0.00000

 Dipole moment (field-independent basis, Debye):
    X=              7.0342    Y=              5.4769    Z=              3.6921  Tot=              9.6493
 Quadrupole moment (field-independent basis, Debye-Ang):
   XX=           -148.3608   YY=           -223.6315   ZZ=           -255.7111
   XY=              3.4390   XZ=              8.7718   YZ=            -12.4829

 Normal termination of Gaussian 16 at Wed Jan 24 01:35:14 2018.
