 Gaussian 16, Revision A.03,
 Gaussian 16:  EM64L-G16RevA.03 25-Dec-2016

 ---------------------------------------
 #p wb97xd/cc-pvdz sp scf=(maxcycles=20)
 ---------------------------------------

 ------------------
 Base pair stacking
 ------------------
 Symbolic Z-matrix:
 Charge =  0 Multiplicity = 1

                         Standard orientation:
 ---------------------------------------------------------------------
 Center     Atomic      Atomic             Coordinates (Angstroms)
 Number     Number       Type             X           Y           Z
 ---------------------------------------------------------------------
      1          7           0       -6.695197   -1.524794    0.413041
      2          6           0       -8.078192   -1.011019    0.376243
      3          6           0       -4.514959   -1.690023    0.650887
      4          7           0       -4.956899   -2.940712    0.244478
      5          6           0       -6.252726   -2.791119    0.117441
      6          1           0       -6.940404   -3.578770   -0.191817
      7          7           0       -3.141145    0.102883    1.329909
      8          6           0       -4.257629    0.836063    1.389013
      9          1           0       -4.118135    1.871703    1.696059
     10          7           0       -5.514645    0.483687    1.127025
     11          6           0       -5.575055   -0.806847    0.759178
     12          6           0       -3.235297   -1.192005    0.956455
     13          7           0       -2.121928   -1.925505    0.896855
     14          1           0       -2.144473   -2.888317    0.625357
     15          1           0       -1.227815   -1.537848    1.121432
     16          1           0       -8.647143   -1.535790    1.009550
     17          1           0       -8.084050   -0.048024    0.644090
     18          1           0       -8.444457   -1.099837   -0.550021
     19          7           0       -2.634991    2.696348   -1.723534
     20          6           0       -1.309008    2.388060   -1.537004
     21          6           0       -3.222652    4.045835   -1.604256
     22          7           0        1.933810    3.381848   -0.789817
     23          1           0        2.833532    2.955750   -0.699361
     24          1           0        1.881523    4.368750   -0.634869
     25          7           0       -0.328075    3.259147   -1.215996
     26          6           0        0.845716    2.662957   -1.104697
     27          7           0        1.045704    1.316824   -1.292961
     28          1           0        1.978101    0.947490   -1.187191
     29          6           0        0.051084    0.401835   -1.623731
     30          8           0        0.337589   -0.792686   -1.771227
     31          6           0       -1.215516    1.027528   -1.746764
     32          7           0       -2.457790    0.492432   -2.058703
     33          6           0       -3.266757    1.516700   -2.033282
     34          1           0       -4.337612    1.467347   -2.233589
     35          1           0       -3.921320    4.044978   -0.889650
     36          1           0       -2.505405    4.699598   -1.366746
     37          1           0       -3.636953    4.308922   -2.474861
     38          1           0        6.715321   -0.365520    0.111846
     39          1           0        6.973503   -0.356850   -1.631120
     40          1           0        5.805260    0.749375   -0.908033
     41          1           0        4.732459   -4.580030   -1.093459
     42          6           0        4.493063   -3.517004   -1.123630
     43          8           0        2.171648   -3.861545   -1.469215
     44          6           0        3.135545   -3.110392   -1.322697
     45          1           0        1.996062   -1.418002   -1.483061
     46          7           0        2.942286   -1.743854   -1.344519
     47          8           0        3.629758    0.417607   -1.231935
     48          6           0        3.898533   -0.770368   -1.198032
     49          1           0        6.495090   -2.847859   -0.823754
     50          6           0        5.447872   -2.590927   -0.977589
     51          6           0        6.238802   -0.237869   -0.848725
     52          7           0        5.183057   -1.241415   -1.010103
     53          1           0        3.610550    3.683076    3.398532
     54          1           0        2.465350    3.809618    2.243284
     55          1           0        4.044676    3.820987    1.831395
     56          1           0        1.344649   -3.071906    1.324516
     57          1           0        2.949882   -2.741177    1.797754
     58          7           0        2.037349   -2.395801    1.575923
     59          6           0        1.757661   -1.091377    1.613965
     60          6           0        2.255867    1.210133    1.955372
     61          7           0        1.021622    1.645260    1.652504
     62          1           0       -0.795231    0.886847    1.082898
     63          6           0        0.228681    0.621489    1.342619
     64          7           0        0.506916   -0.685673    1.303934
     65          1           0        5.361020    1.413560    2.832189
     66          6           0        4.368522    1.079713    2.528151
     67          7           0        4.032765   -0.170705    2.324661
     68          6           0        2.695710   -0.102133    1.960930
     69          6           0        3.367614    3.438011    2.459958
     70          7           0        3.341846    1.968815    2.322848
 ---------------------------------------------------------------------

 SCF Done:  E(RwB97XD) =  -2048.74437444     A.U. after   15 cycles

 The electronic state is 1-A.
 Alpha  occ. eigenvalues --  -19.25988 -19.22298 -19.20710 -14.52564 -14.51712
 Alpha  occ. eigenvalues --  -14.48867 -14.48784 -14.48016 -14.47007 -14.46938
 Alpha  occ. eigenvalues --  -14.46935 -14.44734 -14.43152 -14.43077 -14.42190
 Alpha  occ. eigenvalues --  -14.42156 -14.41516 -14.41004 -14.40803 -14.40206
 Alpha  occ. eigenvalues --  -10.45628 -10.41350 -10.40394 -10.38825 -10.38309
 Alpha  occ. eigenvalues --  -10.38024 -10.37294 -10.36223 -10.35453 -10.35321
 Alpha  occ. eigenvalues --  -10.34657 -10.34425 -10.34179 -10.33524 -10.33455
 Alpha  occ. eigenvalues --  -10.33249 -10.33179 -10.31721 -10.31292 -10.31066
 Alpha  occ. eigenvalues --  -10.30858 -10.28611 -10.28187  -1.19562  -1.14376
 Alpha  occ. eigenvalues --   -1.13323  -1.13293  -1.11445  -1.10624  -1.09456
 Alpha  occ. eigenvalues --   -1.08703  -1.08163  -1.05033  -1.03733  -1.02672
 Alpha  occ. eigenvalues --   -1.00477  -1.00210  -0.99960  -0.98617  -0.97045
 Alpha  occ. eigenvalues --   -0.96593  -0.95732  -0.92683  -0.91236  -0.86797
 Alpha  occ. eigenvalues --   -0.85252  -0.84163  -0.84031  -0.83755  -0.82520
 Alpha  occ. eigenvalues --   -0.82401  -0.79045  -0.76107  -0.74704  -0.73844
 Alpha  occ. eigenvalues --   -0.73793  -0.73527  -0.72965  -0.71132  -0.69504
 Alpha  occ. eigenvalues --   -0.67525  -0.66708  -0.66367  -0.65844  -0.64599
 Alpha  occ. eigenvalues --   -0.63867  -0.63352  -0.62795  -0.62734  -0.61905
 Alpha  occ. eigenvalues --   -0.60299  -0.59886  -0.59704  -0.59604  -0.59125
 Alpha  occ. eigenvalues --   -0.58694  -0.58554  -0.56739  -0.56579  -0.56478
 Alpha  occ. eigenvalues --   -0.56102  -0.55450  -0.54876  -0.54555  -0.54454
 Alpha  occ. eigenvalues --   -0.53753  -0.53570  -0.53032  -0.52952  -0.52618
 Alpha  occ. eigenvalues --   -0.52504  -0.51971  -0.51834  -0.50832  -0.50270
 Alpha  occ. eigenvalues --   -0.50253  -0.49592  -0.49304  -0.48999  -0.48877
 Alpha  occ. eigenvalues --   -0.48657  -0.48345  -0.48047  -0.47826  -0.47514
 Alpha  occ. eigenvalues --   -0.47037  -0.45597  -0.45108  -0.44258  -0.43427
 Alpha  occ. eigenvalues --   -0.41240  -0.39854  -0.39561  -0.37428  -0.37320
 Alpha  occ. eigenvalues --   -0.37258  -0.36884  -0.36608  -0.35906  -0.34349
 Alpha  occ. eigenvalues --   -0.33858  -0.33566  -0.33490  -0.33419  -0.33090
 Alpha  occ. eigenvalues --   -0.32762  -0.32437  -0.32172  -0.31880  -0.30991
 Alpha  occ. eigenvalues --   -0.30437  -0.28944  -0.25817  -0.25554
 Alpha virt. eigenvalues --    0.02797   0.04910   0.07546   0.07851   0.08690
 Alpha virt. eigenvalues --    0.09251   0.09494   0.10908   0.11378   0.11753
 Alpha virt. eigenvalues --    0.12696   0.13963   0.14628   0.14740   0.14884

 Mulliken charges:
               1
     1  N   -0.311443
     2  C    0.180810
     3  C    0.038432
     4  N   -0.258698
     5  C    0.133412
     6  H    0.026657
     7  N   -0.290255
     8  C    0.129730
     9  H    0.010087
    10  N   -0.290838
    11  C    0.240144
    12  C    0.122854
    13  N   -0.052973
    14  H    0.109528
    15  H    0.089736
    16  H    0.025773
    17  H    0.033914
    18  H    0.025711
    19  N   -0.310907
    20  C    0.242549
    21  C    0.180854
    22  N   -0.113846
    23  H    0.114307
    24  H    0.115948
    25  N   -0.299484
    26  C    0.229800
    27  N   -0.126489
    28  H    0.115271
    29  C    0.151041
    30  O   -0.318528
    31  C    0.009980
    32  N   -0.223521
    33  C    0.129731
    34  H    0.028759
    35  H    0.030533
    36  H    0.027949
    37  H    0.024385
    38  H    0.062550
    39  H    0.059248
    40  H    0.071979
    41  H    0.030874
    42  C   -0.115149
    43  O   -0.270086
    44  C    0.161899
    45  H    0.136487
    46  N   -0.127409
    47  O   -0.350149
    48  C    0.357502
    49  H    0.049051
    50  C    0.176863
    51  C    0.041818
    52  N   -0.290005
    53  H    0.034367
    54  H    0.041205
    55  H    0.019485
    56  H    0.127239
    57  H    0.113799
    58  N   -0.059230
    59  C    0.097975
    60  C    0.229905
    61  N   -0.261241
    62  H    0.049024
    63  C    0.158934
    64  N   -0.298691
    65  H    0.030373
    66  C    0.132756
    67  N   -0.267254
    68  C    0.023451
    69  C    0.173059
    70  N   -0.311547
 Sum of Mulliken charges =  -0.00000

 Dipole moment (field-independent basis, Debye):
    X=              7.9919    Y=              5.8322    Z=              2.1922  Tot=             10.1336
 Quadrupole moment (field-independent basis, Debye-Ang):
   XX=           -147.6525   YY=           -220.0699   ZZ=           -252.2878
   XY=              3.3377   XZ=             10.2074   YZ=             -7.3097

 Normal termination of Gaussian 16 at Wed Jan 24 06:13:48 2018.
