 Gaussian 16, Revision A.03,
 Gaussian 16:  EM64L-G16RevA.03 25-Dec-2016

 ---------------------------------------
 #p wb97xd/cc-pvdz sp scf=(maxcycles=20)
 ---------------------------------------

 ------------------
 Base pair stacking
 ------------------
 Symbolic Z-matrix:
 Charge =  0 Multiplicity = 1

                         Standard orientation:
 ---------------------------------------------------------------------
 Center     Atomic      Atomic             Coordinates (Angstroms)
 Number     Number       Type             X           Y           Z
 ---------------------------------------------------------------------
      1          7           0        4.897548   -1.808642   -1.599005
      2          6           0        6.296003   -1.350362   -1.709870
      3          6           0        2.701083   -1.866256   -1.501342
      4          7           0        3.130060   -3.178815   -1.367550
      5          6           0        4.436178   -3.091566   -1.431740
      6          1           0        5.118353   -3.939348   -1.362107
      7          7           0        1.341037    0.053614   -1.666685
      8          6           0        2.474037    0.751910   -1.794270
      9          1           0        2.346740    1.827058   -1.913147
     10          7           0        3.734744    0.323531   -1.797045
     11          6           0        3.779215   -1.010369   -1.644846
     12          6           0        1.419419   -1.286532   -1.515181
     13          7           0        0.289552   -1.985317   -1.387667
     14          1           0        0.300059   -2.979314   -1.273315
     15          1           0       -0.605459   -1.539331   -1.402087
     16          1           0        6.728974   -1.784881   -2.499755
     17          1           0        6.314082   -0.357655   -1.825256
     18          1           0        6.796542   -1.596946   -0.880020
     19          7           0        4.608877    2.431878    1.002408
     20          6           0        3.255467    2.199202    1.049089
     21          6           0        5.241936    3.725417    0.675782
     22          7           0       -0.006575    3.345566    0.722397
     23          1           0       -0.930859    2.974776    0.808789
     24          1           0        0.073503    4.311447    0.474678
     25          7           0        2.284348    3.105881    0.806369
     26          6           0        1.077410    2.582604    0.929240
     27          7           0        0.837674    1.271916    1.264114
     28          1           0       -0.118196    0.958581    1.335423
     29          6           0        1.821476    0.321423    1.518229
     30          8           0        1.498129   -0.835899    1.812837
     31          6           0        3.123353    0.868761    1.390089
     32          7           0        4.368765    0.278075    1.554191
     33          6           0        5.217380    1.240744    1.314778
     34          1           0        6.302213    1.135850    1.352332
     35          1           0        5.817675    3.621465   -0.134484
     36          1           0        4.532325    4.404901    0.494059
     37          1           0        5.802290    4.028072    1.445978
     38          1           0       -5.064896   -0.133085    0.898239
     39          1           0       -5.043230    0.030319    2.652515
     40          1           0       -3.946365    0.995432    1.664191
     41          1           0       -3.145702   -4.362496    2.153375
     42          6           0       -2.847780   -3.318804    2.052481
     43          8           0       -0.522833   -3.789471    2.067600
     44          6           0       -1.455995   -2.989446    2.004607
     45          1           0       -0.216214   -1.369684    1.838412
     46          7           0       -1.188568   -1.641437    1.875737
     47          8           0       -1.768032    0.545518    1.679183
     48          6           0       -2.102230   -0.620787    1.791949
     49          1           0       -4.833145   -2.543028    2.004743
     50          6           0       -3.762504   -2.345369    1.973096
     51          6           0       -4.436247    0.037801    1.759438
     52          7           0       -3.423742   -1.018237    1.845298
     53          1           0       -5.438856    4.125024   -2.039524
     54          1           0       -4.122366    4.030344   -1.080367
     55          1           0       -5.615066    4.024836   -0.420160
     56          1           0       -3.260118   -2.941020   -1.415209
     57          1           0       -4.898358   -2.489555   -1.565009
     58          7           0       -3.944478   -2.212367   -1.444617
     59          6           0       -3.601393   -0.927849   -1.328521
     60          6           0       -4.016778    1.412965   -1.229722
     61          7           0       -2.727962    1.755849   -1.068995
     62          1           0       -0.889999    0.860465   -0.924818
     63          6           0       -1.955133    0.671715   -1.051846
     64          7           0       -2.296856   -0.615652   -1.167969
     65          1           0       -7.204259    1.849572   -1.548331
     66          6           0       -6.196824    1.440967   -1.464256
     67          7           0       -5.904157    0.164318   -1.510967
     68          6           0       -4.525045    0.132612   -1.363465
     69          6           0       -5.066779    3.726131   -1.201407
     70          7           0       -5.102448    2.253776   -1.295724
 ---------------------------------------------------------------------

 SCF Done:  E(RwB97XD) =  -2048.74972880     A.U. after   15 cycles

 The electronic state is 1-A.
 Alpha  occ. eigenvalues --  -19.25295 -19.21509 -19.20371 -14.52821 -14.51969
 Alpha  occ. eigenvalues --  -14.48889 -14.48668 -14.48278 -14.47303 -14.46550
 Alpha  occ. eigenvalues --  -14.46276 -14.45766 -14.44817 -14.44777 -14.42729
 Alpha  occ. eigenvalues --  -14.41855 -14.40969 -14.40864 -14.40779 -14.40354
 Alpha  occ. eigenvalues --  -10.44943 -10.40991 -10.40522 -10.39634 -10.38344
 Alpha  occ. eigenvalues --  -10.37995 -10.37608 -10.37482 -10.36360 -10.35552
 Alpha  occ. eigenvalues --  -10.34366 -10.34186 -10.34182 -10.33693 -10.33336
 Alpha  occ. eigenvalues --  -10.33071 -10.33017 -10.32936 -10.30849 -10.30757
 Alpha  occ. eigenvalues --  -10.30490 -10.28313 -10.27931  -1.18974  -1.15577
 Alpha  occ. eigenvalues --   -1.12960  -1.12528  -1.10915  -1.10420  -1.09833
 Alpha  occ. eigenvalues --   -1.08861  -1.08304  -1.05348  -1.05055  -1.01953
 Alpha  occ. eigenvalues --   -1.01362  -1.00518  -0.99413  -0.98346  -0.97384
 Alpha  occ. eigenvalues --   -0.96617  -0.96467  -0.92748  -0.90666  -0.88045
 Alpha  occ. eigenvalues --   -0.86267  -0.83978  -0.83610  -0.83068  -0.82376
 Alpha  occ. eigenvalues --   -0.82000  -0.78453  -0.77491  -0.75322  -0.74444
 Alpha  occ. eigenvalues --   -0.73360  -0.72866  -0.72815  -0.70963  -0.70824
 Alpha  occ. eigenvalues --   -0.67312  -0.67111  -0.66219  -0.66085  -0.64713
 Alpha  occ. eigenvalues --   -0.64177  -0.63506  -0.62671  -0.62465  -0.61524
 Alpha  occ. eigenvalues --   -0.60992  -0.60712  -0.60545  -0.59751  -0.59228
 Alpha  occ. eigenvalues --   -0.59009  -0.58029  -0.56741  -0.56418  -0.55800
 Alpha  occ. eigenvalues --   -0.55751  -0.55634  -0.55507  -0.54660  -0.54094
 Alpha  occ. eigenvalues --   -0.53885  -0.53555  -0.53343  -0.53137  -0.52781
 Alpha  occ. eigenvalues --   -0.52598  -0.51971  -0.51495  -0.50439  -0.50336
 Alpha  occ. eigenvalues --   -0.49982  -0.49898  -0.49679  -0.49049  -0.48811
 Alpha  occ. eigenvalues --   -0.48609  -0.48122  -0.48025  -0.47570  -0.47048
 Alpha  occ. eigenvalues --   -0.46740  -0.45729  -0.45170  -0.44354  -0.43377
 Alpha  occ. eigenvalues --   -0.41195  -0.41061  -0.39005  -0.38067  -0.38031
 Alpha  occ. eigenvalues --   -0.37366  -0.37129  -0.36725  -0.35457  -0.35188
 Alpha  occ. eigenvalues --   -0.34874  -0.33929  -0.33341  -0.33193  -0.32750
 Alpha  occ. eigenvalues --   -0.32458  -0.32263  -0.31730  -0.31710  -0.30609
 Alpha  occ. eigenvalues --   -0.30359  -0.30260  -0.25930  -0.25143
 Alpha virt. eigenvalues --    0.03081   0.04001   0.06191   0.08108   0.09170
 Alpha virt. eigenvalues --    0.09471   0.09895   0.10107   0.10990   0.11849
 Alpha virt. eigenvalues --    0.12990   0.14337   0.14541   0.14747   0.15037

 Mulliken charges:
               1
     1  N   -0.311564
     2  C    0.182821
     3  C    0.056340
     4  N   -0.261630
     5  C    0.142992
     6  H    0.026837
     7  N   -0.289649
     8  C    0.127353
     9  H    0.013706
    10  N   -0.279297
    11  C    0.258213
    12  C    0.092129
    13  N   -0.063246
    14  H    0.111145
    15  H    0.080915
    16  H    0.022360
    17  H    0.028950
    18  H    0.029763
    19  N   -0.304218
    20  C    0.248168
    21  C    0.181417
    22  N   -0.113961
    23  H    0.115581
    24  H    0.115469
    25  N   -0.305852
    26  C    0.233350
    27  N   -0.128748
    28  H    0.111618
    29  C    0.181731
    30  O   -0.322572
    31  C   -0.011325
    32  N   -0.227726
    33  C    0.123226
    34  H    0.018984
    35  H    0.028013
    36  H    0.028700
    37  H    0.023435
    38  H    0.065199
    39  H    0.057108
    40  H    0.076090
    41  H    0.026940
    42  C   -0.115621
    43  O   -0.263522
    44  C    0.175783
    45  H    0.131841
    46  N   -0.126533
    47  O   -0.341619
    48  C    0.346440
    49  H    0.043197
    50  C    0.165507
    51  C    0.034703
    52  N   -0.278560
    53  H    0.035180
    54  H    0.037860
    55  H    0.030853
    56  H    0.119616
    57  H    0.117999
    58  N   -0.060686
    59  C    0.093059
    60  C    0.248341
    61  N   -0.274932
    62  H    0.023412
    63  C    0.186077
    64  N   -0.311902
    65  H    0.039825
    66  C    0.135157
    67  N   -0.256585
    68  C    0.003329
    69  C    0.181540
    70  N   -0.308525
 Sum of Mulliken charges =  -0.00000

 Dipole moment (field-independent basis, Debye):
    X=             -8.1328    Y=              6.4552    Z=             -2.0147  Tot=             10.5769
 Quadrupole moment (field-independent basis, Debye-Ang):
   XX=           -159.5989   YY=           -219.5935   ZZ=           -254.3856
   XY=              3.3143   XZ=            -12.0071   YZ=             10.3033

 Normal termination of Gaussian 16 at Tue Jan 23 17:17:56 2018.
