 Gaussian 16, Revision A.03,
 Gaussian 16:  EM64L-G16RevA.03 25-Dec-2016

 ---------------------------------------
 #p wb97xd/cc-pvdz sp scf=(maxcycles=20)
 ---------------------------------------

 ------------------
 Base pair stacking
 ------------------
 Symbolic Z-matrix:
 Charge =  0 Multiplicity = 1

                         Standard orientation:
 ---------------------------------------------------------------------
 Center     Atomic      Atomic             Coordinates (Angstroms)
 Number     Number       Type             X           Y           Z
 ---------------------------------------------------------------------
      1          7           0        4.898416   -1.973967   -1.598529
      2          6           0        6.288595   -1.554272   -1.861690
      3          6           0        2.708716   -2.000171   -1.393990
      4          7           0        3.148860   -3.260534   -1.016538
      5          6           0        4.450459   -3.194311   -1.154879
      6          1           0        5.138688   -4.013718   -0.945449
      7          7           0        1.334426   -0.147003   -1.883927
      8          6           0        2.457631    0.505637   -2.200239
      9          1           0        2.320558    1.535095   -2.528428
     10          7           0        3.718807    0.079558   -2.172142
     11          6           0        3.775734   -1.196163   -1.755339
     12          6           0        1.425221   -1.429130   -1.468028
     13          7           0        0.305133   -2.082276   -1.151825
     14          1           0        0.324987   -3.032626   -0.839306
     15          1           0       -0.591534   -1.644174   -1.216506
     16          1           0        6.687963   -2.141669   -2.565716
     17          1           0        6.297259   -0.605532   -2.176227
     18          1           0        6.826523   -1.630236   -1.022126
     19          7           0        4.596774    2.560490    0.983938
     20          6           0        3.244522    2.335716    1.078378
     21          6           0        5.226822    3.861008    0.679951
     22          7           0       -0.018302    3.516484    0.931599
     23          1           0       -0.941354    3.149190    1.042557
     24          1           0        0.059714    4.490478    0.717205
     25          7           0        2.271986    3.257730    0.910679
     26          6           0        1.066739    2.738653    1.064157
     27          7           0        0.829864    1.417935    1.359288
     28          1           0       -0.124880    1.108828    1.458672
     29          6           0        1.815164    0.451622    1.536187
     30          8           0        1.494395   -0.713734    1.800371
     31          6           0        3.115248    0.994274    1.374394
     32          7           0        4.361287    0.389074    1.463997
     33          6           0        5.207471    1.354145    1.225649
     34          1           0        6.291990    1.240285    1.213861
     35          1           0        5.767528    3.783786   -0.156993
     36          1           0        4.516145    4.551848    0.553691
     37          1           0        5.821236    4.130334    1.436884
     38          1           0       -5.094656    0.069249    1.187928
     39          1           0       -4.998800    0.165923    2.944666
     40          1           0       -3.935645    1.160071    1.948304
     41          1           0       -3.161419   -4.218036    2.202023
     42          6           0       -2.858984   -3.173392    2.128032
     43          8           0       -0.539544   -3.660588    2.028275
     44          6           0       -1.467610   -2.852224    2.034430
     45          1           0       -0.221927   -1.236063    1.877524
     46          7           0       -1.194190   -1.502212    1.945221
     47          8           0       -1.762509    0.694636    1.855330
     48          6           0       -2.101746   -0.472730    1.938091
     49          1           0       -4.837883   -2.382443    2.192483
     50          6           0       -3.767822   -2.191251    2.123574
     51          6           0       -4.429360    0.202974    2.027915
     52          7           0       -3.423274   -0.862640    2.031660
     53          1           0       -5.472797    3.797034   -2.771995
     54          1           0       -4.114655    3.892096   -1.872824
     55          1           0       -5.576560    4.027388   -1.159666
     56          1           0       -3.238109   -3.006868   -0.828102
     57          1           0       -4.883315   -2.587252   -0.993393
     58          7           0       -3.926239   -2.295983   -0.973960
     59          6           0       -3.583868   -1.016185   -1.135490
     60          6           0       -4.004530    1.298160   -1.494049
     61          7           0       -2.711347    1.660320   -1.463283
     62          1           0       -0.864962    0.803879   -1.222530
     63          6           0       -1.933858    0.598413   -1.261412
     64          7           0       -2.274848   -0.684184   -1.099392
     65          1           0       -7.204857    1.676455   -1.752825
     66          6           0       -6.192936    1.288518   -1.632550
     67          7           0       -5.897138    0.027434   -1.432914
     68          6           0       -4.512714    0.019662   -1.343301
     69          6           0       -5.062195    3.574189   -1.887834
     70          7           0       -5.095668    2.113388   -1.680621
 ---------------------------------------------------------------------

 SCF Done:  E(RwB97XD) =  -2048.74986085     A.U. after   15 cycles

 The electronic state is 1-A.
 Alpha  occ. eigenvalues --  -19.25560 -19.21796 -19.20535 -14.52591 -14.52200
 Alpha  occ. eigenvalues --  -14.48871 -14.48621 -14.48044 -14.47485 -14.46819
 Alpha  occ. eigenvalues --  -14.46601 -14.45604 -14.44637 -14.44539 -14.42284
 Alpha  occ. eigenvalues --  -14.42021 -14.41046 -14.40665 -14.40579 -14.40118
 Alpha  occ. eigenvalues --  -10.45190 -10.41221 -10.40288 -10.39911 -10.38190
 Alpha  occ. eigenvalues --  -10.38164 -10.37772 -10.37405 -10.36049 -10.35229
 Alpha  occ. eigenvalues --  -10.34695 -10.34403 -10.33963 -10.33486 -10.33415
 Alpha  occ. eigenvalues --  -10.32891 -10.32824 -10.32773 -10.31007 -10.30927
 Alpha  occ. eigenvalues --  -10.30344 -10.28155 -10.28030  -1.19138  -1.15359
 Alpha  occ. eigenvalues --   -1.13163  -1.12799  -1.10666  -1.10624  -1.09643
 Alpha  occ. eigenvalues --   -1.09053  -1.08521  -1.05125  -1.04763  -1.02165
 Alpha  occ. eigenvalues --   -1.01155  -1.00195  -0.99689  -0.98544  -0.97154
 Alpha  occ. eigenvalues --   -0.96662  -0.96345  -0.92460  -0.90907  -0.87812
 Alpha  occ. eigenvalues --   -0.86039  -0.84173  -0.83377  -0.83282  -0.82561
 Alpha  occ. eigenvalues --   -0.81777  -0.78685  -0.77273  -0.75068  -0.74648
 Alpha  occ. eigenvalues --   -0.73604  -0.73080  -0.72527  -0.70719  -0.70584
 Alpha  occ. eigenvalues --   -0.67369  -0.67075  -0.66302  -0.65925  -0.64483
 Alpha  occ. eigenvalues --   -0.64370  -0.63689  -0.62624  -0.62368  -0.61760
 Alpha  occ. eigenvalues --   -0.60784  -0.60456  -0.60268  -0.59488  -0.59354
 Alpha  occ. eigenvalues --   -0.59167  -0.58313  -0.56702  -0.56241  -0.55811
 Alpha  occ. eigenvalues --   -0.55669  -0.55470  -0.55194  -0.54473  -0.54134
 Alpha  occ. eigenvalues --   -0.53828  -0.53579  -0.53515  -0.53010  -0.52968
 Alpha  occ. eigenvalues --   -0.52889  -0.52139  -0.51275  -0.50289  -0.50180
 Alpha  occ. eigenvalues --   -0.50078  -0.49717  -0.49455  -0.49245  -0.48802
 Alpha  occ. eigenvalues --   -0.48534  -0.48339  -0.48205  -0.47753  -0.47228
 Alpha  occ. eigenvalues --   -0.46511  -0.45735  -0.45405  -0.44373  -0.43473
 Alpha  occ. eigenvalues --   -0.40913  -0.40811  -0.39195  -0.37829  -0.37810
 Alpha  occ. eigenvalues --   -0.37334  -0.37296  -0.36654  -0.35674  -0.35007
 Alpha  occ. eigenvalues --   -0.34596  -0.33968  -0.33172  -0.33079  -0.32826
 Alpha  occ. eigenvalues --   -0.32662  -0.32518  -0.32088  -0.31886  -0.30434
 Alpha  occ. eigenvalues --   -0.30147  -0.30040  -0.25596  -0.25388
 Alpha virt. eigenvalues --    0.02824   0.04162   0.06467   0.08381   0.09028
 Alpha virt. eigenvalues --    0.09230   0.09763   0.10322   0.11315   0.11639
 Alpha virt. eigenvalues --    0.13191   0.14448   0.14645   0.14766   0.14938

 Mulliken charges:
               1
     1  N   -0.311570
     2  C    0.182439
     3  C    0.054837
     4  N   -0.258202
     5  C    0.143091
     6  H    0.026062
     7  N   -0.296806
     8  C    0.131786
     9  H    0.010347
    10  N   -0.285264
    11  C    0.257229
    12  C    0.095982
    13  N   -0.063342
    14  H    0.114335
    15  H    0.082801
    16  H    0.022192
    17  H    0.029957
    18  H    0.028076
    19  N   -0.309607
    20  C    0.255678
    21  C    0.181014
    22  N   -0.121138
    23  H    0.117532
    24  H    0.117131
    25  N   -0.311971
    26  C    0.246947
    27  N   -0.144058
    28  H    0.116780
    29  C    0.192942
    30  O   -0.322020
    31  C   -0.015572
    32  N   -0.228489
    33  C    0.126564
    34  H    0.020660
    35  H    0.028647
    36  H    0.029381
    37  H    0.024235
    38  H    0.064502
    39  H    0.058961
    40  H    0.074431
    41  H    0.026168
    42  C   -0.123031
    43  O   -0.264863
    44  C    0.171839
    45  H    0.131753
    46  N   -0.123910
    47  O   -0.345638
    48  C    0.346501
    49  H    0.042997
    50  C    0.169341
    51  C    0.034870
    52  N   -0.277607
    53  H    0.034582
    54  H    0.040398
    55  H    0.029402
    56  H    0.120381
    57  H    0.115632
    58  N   -0.058398
    59  C    0.093917
    60  C    0.253889
    61  N   -0.274736
    62  H    0.032750
    63  C    0.176844
    64  N   -0.314379
    65  H    0.039227
    66  C    0.136851
    67  N   -0.262691
    68  C    0.011224
    69  C    0.180803
    70  N   -0.310613
 Sum of Mulliken charges =  -0.00000

 Dipole moment (field-independent basis, Debye):
    X=             -8.1694    Y=              6.7289    Z=             -1.1209  Tot=             10.6430
 Quadrupole moment (field-independent basis, Debye-Ang):
   XX=           -159.7370   YY=           -218.1244   ZZ=           -252.5550
   XY=              2.5328   XZ=            -11.2106   YZ=              6.0352

 Normal termination of Gaussian 16 at Wed Jan 24 06:25:08 2018.
