 Gaussian 16, Revision A.03,
 Gaussian 16:  EM64L-G16RevA.03 25-Dec-2016

 ---------------------------------------
 #p wb97xd/cc-pvdz sp scf=(maxcycles=20)
 ---------------------------------------

 ------------------
 Base pair stacking
 ------------------
 Symbolic Z-matrix:
 Charge =  0 Multiplicity = 1

                         Standard orientation:
 ---------------------------------------------------------------------
 Center     Atomic      Atomic             Coordinates (Angstroms)
 Number     Number       Type             X           Y           Z
 ---------------------------------------------------------------------
      1          7           0       -6.175169   -1.714719    0.729585
      2          6           0       -7.568809   -1.251027    0.873670
      3          6           0       -3.980186   -1.840763    0.788887
      4          7           0       -4.421042   -3.020156    0.206300
      5          6           0       -5.725788   -2.897015    0.193891
      6          1           0       -6.415453   -3.645208   -0.197919
      7          7           0       -2.603109   -0.140226    1.669091
      8          6           0       -3.729185    0.532873    1.926882
      9          1           0       -3.592069    1.506453    2.395493
     10          7           0       -4.993281    0.185522    1.693807
     11          6           0       -5.049998   -1.026179    1.116752
     12          6           0       -2.693761   -1.356470    1.088041
     13          7           0       -1.570805   -2.029903    0.829921
     14          1           0       -1.590454   -2.933599    0.400768
     15          1           0       -0.672101   -1.654290    1.056580
     16          1           0       -8.078199   -1.894427    1.445279
     17          1           0       -7.577756   -0.347535    1.301174
     18          1           0       -7.998774   -1.195790   -0.027481
     19          7           0       -3.219082    2.854643   -1.537115
     20          6           0       -1.881096    2.552071   -1.457784
     21          6           0       -3.802272    4.199479   -1.358152
     22          7           0        1.405207    3.556756   -0.955212
     23          1           0        2.311326    3.134910   -0.939678
     24          1           0        1.360322    4.541718   -0.786258
     25          7           0       -0.882405    3.425449   -1.205044
     26          6           0        0.299413    2.834882   -1.191891
     27          7           0        0.490711    1.491893   -1.409374
     28          1           0        1.430325    1.126847   -1.380519
     29          6           0       -0.522174    0.574644   -1.671243
     30          8           0       -0.242184   -0.616667   -1.853224
     31          6           0       -1.797572    1.194292   -1.688551
     32          7           0       -3.057750    0.655289   -1.908336
     33          6           0       -3.867295    1.674615   -1.809110
     34          1           0       -4.950253    1.621166   -1.925840
     35          1           0       -4.443052    4.187379   -0.591302
     36          1           0       -3.071905    4.854888   -1.170381
     37          1           0       -4.284520    4.469007   -2.190986
     38          1           0        6.260830   -0.172152   -0.468659
     39          1           0        6.382212   -0.144331   -2.226262
     40          1           0        5.268517    0.947804   -1.402672
     41          1           0        4.210702   -4.385490   -1.560162
     42          6           0        3.964474   -3.323607   -1.560354
     43          8           0        1.624887   -3.677892   -1.727524
     44          6           0        2.593575   -2.922758   -1.648672
     45          1           0        1.436760   -1.235369   -1.701850
     46          7           0        2.392503   -1.557197   -1.640939
     47          8           0        3.076033    0.606907   -1.559475
     48          6           0        3.352468   -0.579795   -1.559168
     49          1           0        5.980477   -2.646092   -1.410398
     50          6           0        4.923198   -2.393608   -1.479418
     51          6           0        5.710206   -0.037493   -1.387769
     52          7           0        4.650041   -1.045373   -1.476941
     53          1           0        4.195004    3.276751    3.858210
     54          1           0        2.966798    3.555232    2.820872
     55          1           0        4.511597    3.691187    2.311779
     56          1           0        1.943346   -3.109211    0.822557
     57          1           0        3.570399   -2.806439    1.236236
     58          7           0        2.636435   -2.461009    1.138173
     59          6           0        2.329916   -1.192185    1.416200
     60          6           0        2.797707    1.035332    2.109798
     61          7           0        1.535022    1.471480    1.968944
     62          1           0       -0.300035    0.756112    1.401998
     63          6           0        0.745853    0.487070    1.543436
     64          7           0        1.050959   -0.784393    1.264408
     65          1           0        5.952448    1.197642    2.797859
     66          6           0        4.948656    0.884920    2.508841
     67          7           0        4.628306   -0.324553    2.118680
     68          6           0        3.267247   -0.242916    1.862545
     69          6           0        3.890765    3.184477    2.910091
     70          7           0        3.889398    1.759216    2.527165
 ---------------------------------------------------------------------

 SCF Done:  E(RwB97XD) =  -2048.74593794     A.U. after   15 cycles

 The electronic state is 1-A.
 Alpha  occ. eigenvalues --  -19.26088 -19.22629 -19.20751 -14.52694 -14.51964
 Alpha  occ. eigenvalues --  -14.48829 -14.48402 -14.47982 -14.47256 -14.47087
 Alpha  occ. eigenvalues --  -14.46883 -14.45079 -14.43646 -14.43603 -14.42160
 Alpha  occ. eigenvalues --  -14.41766 -14.40999 -14.40888 -14.40550 -14.39831
 Alpha  occ. eigenvalues --  -10.45711 -10.41376 -10.40660 -10.39216 -10.38347
 Alpha  occ. eigenvalues --  -10.38170 -10.37573 -10.36601 -10.35170 -10.35114
 Alpha  occ. eigenvalues --  -10.35001 -10.34425 -10.33685 -10.33567 -10.33342
 Alpha  occ. eigenvalues --  -10.32953 -10.32742 -10.32093 -10.31464 -10.30933
 Alpha  occ. eigenvalues --  -10.30744 -10.28185 -10.28097  -1.19661  -1.14675
 Alpha  occ. eigenvalues --   -1.13623  -1.13331  -1.10954  -1.10662  -1.09579
 Alpha  occ. eigenvalues --   -1.08703  -1.08600  -1.04603  -1.04172  -1.02761
 Alpha  occ. eigenvalues --   -1.00478  -1.00018  -0.99923  -0.98661  -0.96648
 Alpha  occ. eigenvalues --   -0.96603  -0.96132  -0.92258  -0.91394  -0.87084
 Alpha  occ. eigenvalues --   -0.85450  -0.84185  -0.83741  -0.83585  -0.82559
 Alpha  occ. eigenvalues --   -0.81979  -0.79181  -0.76445  -0.74722  -0.74191
 Alpha  occ. eigenvalues --   -0.73813  -0.73621  -0.72518  -0.70678  -0.69834
 Alpha  occ. eigenvalues --   -0.67525  -0.66791  -0.66192  -0.65915  -0.64686
 Alpha  occ. eigenvalues --   -0.63924  -0.63664  -0.62811  -0.62323  -0.61879
 Alpha  occ. eigenvalues --   -0.60203  -0.59998  -0.59900  -0.59727  -0.59115
 Alpha  occ. eigenvalues --   -0.58922  -0.58543  -0.56675  -0.56212  -0.56178
 Alpha  occ. eigenvalues --   -0.56093  -0.55084  -0.54815  -0.54646  -0.54472
 Alpha  occ. eigenvalues --   -0.53808  -0.53664  -0.53110  -0.53093  -0.53018
 Alpha  occ. eigenvalues --   -0.52573  -0.52254  -0.51462  -0.50400  -0.50338
 Alpha  occ. eigenvalues --   -0.49883  -0.49708  -0.49358  -0.49127  -0.48998
 Alpha  occ. eigenvalues --   -0.48518  -0.48433  -0.48194  -0.47749  -0.47555
 Alpha  occ. eigenvalues --   -0.46604  -0.45696  -0.44637  -0.44369  -0.44077
 Alpha  occ. eigenvalues --   -0.40742  -0.40191  -0.39641  -0.37393  -0.37362
 Alpha  occ. eigenvalues --   -0.37251  -0.36938  -0.36790  -0.36112  -0.34422
 Alpha  occ. eigenvalues --   -0.34101  -0.33801  -0.33634  -0.33111  -0.33080
 Alpha  occ. eigenvalues --   -0.32713  -0.32526  -0.32369  -0.31930  -0.30546
 Alpha  occ. eigenvalues --   -0.30061  -0.29375  -0.25656  -0.25197
 Alpha virt. eigenvalues --    0.02488   0.04642   0.07284   0.08393   0.08610
 Alpha virt. eigenvalues --    0.09098   0.09650   0.11047   0.11441   0.11949
 Alpha virt. eigenvalues --    0.12747   0.14404   0.14701   0.14933   0.15173

 Mulliken charges:
               1
     1  N   -0.312306
     2  C    0.180825
     3  C    0.049039
     4  N   -0.258293
     5  C    0.133632
     6  H    0.024992
     7  N   -0.295007
     8  C    0.135137
     9  H    0.008789
    10  N   -0.292999
    11  C    0.242671
    12  C    0.115773
    13  N   -0.050452
    14  H    0.112527
    15  H    0.089281
    16  H    0.024857
    17  H    0.032696
    18  H    0.024546
    19  N   -0.312035
    20  C    0.250850
    21  C    0.180629
    22  N   -0.118358
    23  H    0.113492
    24  H    0.116428
    25  N   -0.309409
    26  C    0.243011
    27  N   -0.144301
    28  H    0.117573
    29  C    0.180734
    30  O   -0.322006
    31  C   -0.004181
    32  N   -0.226170
    33  C    0.132709
    34  H    0.025309
    35  H    0.030583
    36  H    0.028404
    37  H    0.024333
    38  H    0.063370
    39  H    0.058603
    40  H    0.071958
    41  H    0.029913
    42  C   -0.112687
    43  O   -0.268243
    44  C    0.140798
    45  H    0.135242
    46  N   -0.110583
    47  O   -0.344698
    48  C    0.342851
    49  H    0.050037
    50  C    0.171538
    51  C    0.040381
    52  N   -0.282241
    53  H    0.033665
    54  H    0.042476
    55  H    0.024360
    56  H    0.129301
    57  H    0.115022
    58  N   -0.056972
    59  C    0.078833
    60  C    0.246076
    61  N   -0.270165
    62  H    0.038993
    63  C    0.166183
    64  N   -0.302605
    65  H    0.033702
    66  C    0.136572
    67  N   -0.267561
    68  C    0.025962
    69  C    0.178905
    70  N   -0.312291
 Sum of Mulliken charges =  -0.00000

 Dipole moment (field-independent basis, Debye):
    X=              8.4192    Y=              6.2192    Z=              1.5052  Tot=             10.5749
 Quadrupole moment (field-independent basis, Debye-Ang):
   XX=           -151.8597   YY=           -218.8085   ZZ=           -251.5420
   XY=              0.4806   XZ=              4.5262   YZ=             -3.5810

 Normal termination of Gaussian 16 at Tue Jan 23 20:10:23 2018.
