 Gaussian 16, Revision A.03,
 Gaussian 16:  EM64L-G16RevA.03 25-Dec-2016

 ---------------------------------------
 #p wb97xd/cc-pvdz sp scf=(maxcycles=20)
 ---------------------------------------

 ------------------
 Base pair stacking
 ------------------
 Symbolic Z-matrix:
 Charge =  0 Multiplicity = 1

                         Standard orientation:
 ---------------------------------------------------------------------
 Center     Atomic      Atomic             Coordinates (Angstroms)
 Number     Number       Type             X           Y           Z
 ---------------------------------------------------------------------
      1          7           0        5.527373   -1.754802   -1.234306
      2          6           0        6.922312   -1.277073   -1.297001
      3          6           0        3.330134   -1.849531   -1.255975
      4          7           0        3.771901   -3.141750   -1.011572
      5          6           0        5.077971   -3.032964   -1.008309
      6          1           0        5.768651   -3.860661   -0.844519
      7          7           0        1.950953    0.028031   -1.624170
      8          6           0        3.077966    0.738871   -1.734291
      9          1           0        2.940333    1.801197   -1.931197
     10          7           0        4.343523    0.336349   -1.638136
     11          6           0        4.400761   -0.983602   -1.395488
     12          6           0        2.042166   -1.297523   -1.379895
     13          7           0        0.918278   -2.008785   -1.269641
     14          1           0        0.938280   -2.992775   -1.089152
     15          1           0        0.018484   -1.582560   -1.363639
     16          1           0        7.406614   -1.753601   -2.030850
     17          1           0        6.930918   -0.293855   -1.476838
     18          1           0        7.378571   -1.458888   -0.425923
     19          7           0        3.967165    2.558509    1.305904
     20          6           0        2.617830    2.301161    1.272194
     21          6           0        4.593533    3.867960    1.034456
     22          7           0       -0.641232    3.394376    0.777093
     23          1           0       -1.561872    3.005970    0.805447
     24          1           0       -0.565241    4.365244    0.548263
     25          7           0        1.645327    3.194109    0.987729
     26          6           0        0.443303    2.647666    1.034234
     27          7           0        0.209402    1.327926    1.336026
     28          1           0       -0.742981    0.996608    1.348344
     29          6           0        1.194743    0.391234    1.631952
     30          8           0        0.876819   -0.776055    1.891000
     31          6           0        2.491387    0.963489    1.585942
     32          7           0        3.736283    0.392528    1.812065
     33          6           0        4.579050    1.373683    1.635184
     34          1           0        5.661780    1.287477    1.732843
     35          1           0        5.216033    3.786748    0.256827
     36          1           0        3.882838    4.537468    0.822481
     37          1           0        5.103684    4.168588    1.839551
     38          1           0       -5.635872   -0.175765    0.614929
     39          1           0       -5.716550   -0.039086    2.369773
     40          1           0       -4.583640    0.960472    1.459405
     41          1           0       -3.712495   -4.389325    1.916141
     42          6           0       -3.428787   -3.339074    1.847382
     43          8           0       -1.100083   -3.768596    1.987886
     44          6           0       -2.042888   -2.984380    1.883470
     45          1           0       -0.826011   -1.340506    1.811372
     46          7           0       -1.793705   -1.630014    1.789436
     47          8           0       -2.401663    0.549092    1.591765
     48          6           0       -2.719968   -0.624549    1.668544
     49          1           0       -5.422354   -2.597989    1.698000
     50          6           0       -4.355490   -2.380912    1.730139
     51          6           0       -5.060249   -0.007058    1.512856
     52          7           0       -4.034766   -1.046162    1.640932
     53          1           0       -4.861398    3.930890   -2.644880
     54          1           0       -3.600460    3.925274   -1.609465
     55          1           0       -5.128143    3.933287   -1.034830
     56          1           0       -2.608142   -3.034555   -1.432077
     57          1           0       -4.242232   -2.626487   -1.702868
     58          7           0       -3.301375   -2.323123   -1.547998
     59          6           0       -2.986248   -1.027202   -1.498426
     60          6           0       -3.444304    1.306350   -1.578614
     61          7           0       -2.172477    1.684529   -1.369201
     62          1           0       -0.331532    0.837180   -1.063386
     63          6           0       -1.384485    0.619409   -1.236947
     64          7           0       -1.698208   -0.679332   -1.286277
     65          1           0       -6.615019    1.657799   -2.103180
     66          6           0       -5.607576    1.275653   -1.935986
     67          7           0       -5.292163    0.004743   -1.881420
     68          6           0       -3.923386    0.010149   -1.655270
     69          6           0       -4.531401    3.595110   -1.762649
     70          7           0       -4.537860    2.119317   -1.760861
 ---------------------------------------------------------------------

 SCF Done:  E(RwB97XD) =  -2048.75135535     A.U. after   15 cycles

 The electronic state is 1-A.
 Alpha  occ. eigenvalues --  -19.25555 -19.21786 -19.20410 -14.52696 -14.52180
 Alpha  occ. eigenvalues --  -14.48521 -14.48500 -14.48438 -14.47544 -14.46633
 Alpha  occ. eigenvalues --  -14.46117 -14.45710 -14.44452 -14.44450 -14.42321
 Alpha  occ. eigenvalues --  -14.41743 -14.41070 -14.40799 -14.40636 -14.40161
 Alpha  occ. eigenvalues --  -10.45172 -10.40909 -10.40172 -10.39894 -10.38228
 Alpha  occ. eigenvalues --  -10.37994 -10.37626 -10.37392 -10.35874 -10.35344
 Alpha  occ. eigenvalues --  -10.34593 -10.34191 -10.34056 -10.33772 -10.33110
 Alpha  occ. eigenvalues --  -10.33090 -10.32943 -10.32855 -10.30935 -10.30759
 Alpha  occ. eigenvalues --  -10.30699 -10.28271 -10.27829  -1.19172  -1.15410
 Alpha  occ. eigenvalues --   -1.12947  -1.12797  -1.11018  -1.10337  -1.09480
 Alpha  occ. eigenvalues --   -1.09057  -1.08258  -1.05031  -1.04888  -1.02194
 Alpha  occ. eigenvalues --   -1.01225  -1.00348  -0.99330  -0.98297  -0.97056
 Alpha  occ. eigenvalues --   -0.96663  -0.96344  -0.92586  -0.90834  -0.87832
 Alpha  occ. eigenvalues --   -0.86150  -0.83841  -0.83680  -0.83239  -0.82258
 Alpha  occ. eigenvalues --   -0.82100  -0.78646  -0.77232  -0.75064  -0.74340
 Alpha  occ. eigenvalues --   -0.73327  -0.73066  -0.72747  -0.70893  -0.70623
 Alpha  occ. eigenvalues --   -0.67090  -0.66999  -0.66261  -0.66149  -0.64494
 Alpha  occ. eigenvalues --   -0.64210  -0.63523  -0.62592  -0.62471  -0.61417
 Alpha  occ. eigenvalues --   -0.60765  -0.60475  -0.60425  -0.59579  -0.59306
 Alpha  occ. eigenvalues --   -0.59117  -0.57959  -0.56627  -0.56361  -0.56029
 Alpha  occ. eigenvalues --   -0.55745  -0.55607  -0.55342  -0.54397  -0.54071
 Alpha  occ. eigenvalues --   -0.53943  -0.53512  -0.53399  -0.53187  -0.52851
 Alpha  occ. eigenvalues --   -0.52685  -0.52082  -0.51590  -0.50536  -0.50114
 Alpha  occ. eigenvalues --   -0.49971  -0.49869  -0.49340  -0.49080  -0.48746
 Alpha  occ. eigenvalues --   -0.48591  -0.48198  -0.48041  -0.47363  -0.47127
 Alpha  occ. eigenvalues --   -0.46739  -0.45670  -0.45113  -0.44479  -0.43602
 Alpha  occ. eigenvalues --   -0.41036  -0.40877  -0.39207  -0.37840  -0.37791
 Alpha  occ. eigenvalues --   -0.37167  -0.37046  -0.36806  -0.35777  -0.34866
 Alpha  occ. eigenvalues --   -0.34601  -0.33597  -0.33325  -0.33156  -0.32948
 Alpha  occ. eigenvalues --   -0.32467  -0.32233  -0.32011  -0.31680  -0.30717
 Alpha  occ. eigenvalues --   -0.30348  -0.29979  -0.25691  -0.25000
 Alpha virt. eigenvalues --    0.03049   0.03944   0.06790   0.08044   0.08796
 Alpha virt. eigenvalues --    0.09463   0.10013   0.10206   0.11241   0.12008
 Alpha virt. eigenvalues --    0.12460   0.14186   0.14511   0.14887   0.15231

 Mulliken charges:
               1
     1  N   -0.313360
     2  C    0.181462
     3  C    0.055253
     4  N   -0.260570
     5  C    0.138537
     6  H    0.026090
     7  N   -0.294916
     8  C    0.135227
     9  H    0.010925
    10  N   -0.287737
    11  C    0.257214
    12  C    0.104913
    13  N   -0.055869
    14  H    0.110408
    15  H    0.082485
    16  H    0.024169
    17  H    0.030262
    18  H    0.027185
    19  N   -0.303847
    20  C    0.242518
    21  C    0.180597
    22  N   -0.102062
    23  H    0.111730
    24  H    0.113272
    25  N   -0.306875
    26  C    0.223804
    27  N   -0.145990
    28  H    0.123103
    29  C    0.185749
    30  O   -0.323496
    31  C   -0.012364
    32  N   -0.224440
    33  C    0.131882
    34  H    0.018541
    35  H    0.029780
    36  H    0.027738
    37  H    0.023113
    38  H    0.062418
    39  H    0.058444
    40  H    0.070530
    41  H    0.027834
    42  C   -0.113399
    43  O   -0.264990
    44  C    0.168630
    45  H    0.131565
    46  N   -0.120387
    47  O   -0.338659
    48  C    0.333361
    49  H    0.045667
    50  C    0.164943
    51  C    0.036103
    52  N   -0.280176
    53  H    0.035713
    54  H    0.037351
    55  H    0.029229
    56  H    0.123455
    57  H    0.116182
    58  N   -0.056404
    59  C    0.085385
    60  C    0.255268
    61  N   -0.277600
    62  H    0.046761
    63  C    0.157674
    64  N   -0.302439
    65  H    0.038158
    66  C    0.136031
    67  N   -0.263345
    68  C    0.022174
    69  C    0.180096
    70  N   -0.310004
 Sum of Mulliken charges =  -0.00000

 Dipole moment (field-independent basis, Debye):
    X=             -8.1304    Y=              6.2229    Z=             -2.3825  Tot=             10.5121
 Quadrupole moment (field-independent basis, Debye-Ang):
   XX=           -154.9864   YY=           -219.4397   ZZ=           -255.0098
   XY=              0.3410   XZ=             -3.9506   YZ=              8.8432

 Normal termination of Gaussian 16 at Wed Jan 24 04:29:42 2018.
