 Gaussian 16, Revision A.03,
 Gaussian 16:  EM64L-G16RevA.03 25-Dec-2016

 ---------------------------------------
 #p wb97xd/cc-pvdz sp scf=(maxcycles=20)
 ---------------------------------------

 ------------------
 Base pair stacking
 ------------------
 Symbolic Z-matrix:
 Charge =  0 Multiplicity = 1

                         Standard orientation:
 ---------------------------------------------------------------------
 Center     Atomic      Atomic             Coordinates (Angstroms)
 Number     Number       Type             X           Y           Z
 ---------------------------------------------------------------------
      1          7           0        4.234951   -2.209840   -1.872054
      2          6           0        5.598354   -1.873933   -2.326262
      3          6           0        2.077396   -2.138655   -1.451103
      4          7           0        2.531079   -3.349634   -0.948679
      5          6           0        3.812769   -3.344055   -1.222396
      6          1           0        4.503978   -4.148968   -0.970826
      7          7           0        0.693737   -0.326233   -2.054076
      8          6           0        1.790352    0.241622   -2.566482
      9          1           0        1.639000    1.220983   -3.018378
     10          7           0        3.039980   -0.216514   -2.604305
     11          6           0        3.116245   -1.425216   -2.023225
     12          6           0        0.803477   -1.542487   -1.476341
     13          7           0       -0.290053   -2.110957   -0.964285
     14          1           0       -0.255471   -3.010384   -0.527199
     15          1           0       -1.180661   -1.657431   -1.000086
     16          1           0        5.913277   -2.563605   -2.978454
     17          1           0        5.591898   -0.977272   -2.767928
     18          1           0        6.217614   -1.852552   -1.541372
     19          7           0        5.210236    2.504770    0.592283
     20          6           0        3.866135    2.323102    0.812369
     21          6           0        5.854339    3.790806    0.257711
     22          7           0        0.648744    3.615958    1.009038
     23          1           0       -0.271931    3.277091    1.200766
     24          1           0        0.740653    4.591976    0.809866
     25          7           0        2.915663    3.281195    0.760369
     26          6           0        1.712920    2.799052    1.018375
     27          7           0        1.458331    1.479879    1.305564
     28          1           0        0.507094    1.200505    1.490135
     29          6           0        2.420789    0.476853    1.364482
     30          8           0        2.085351   -0.683492    1.632473
     31          6           0        3.717915    0.979592    1.089529
     32          7           0        4.944296    0.330860    1.044358
     33          6           0        5.797700    1.272823    0.746675
     34          1           0        6.871280    1.123014    0.627234
     35          1           0        6.308965    3.717003   -0.629234
     36          1           0        5.160041    4.508090    0.216402
     37          1           0        6.528041    4.020539    0.959248
     38          1           0       -4.499745    0.335386    1.679467
     39          1           0       -4.232046    0.383688    3.420342
     40          1           0       -3.234651    1.366877    2.348001
     41          1           0       -2.632903   -4.038901    2.405443
     42          6           0       -2.301724   -3.003422    2.325797
     43          8           0       -0.021575   -3.565381    1.990753
     44          6           0       -0.915179   -2.726789    2.104900
     45          1           0        0.366772   -1.149796    1.864015
     46          7           0       -0.603397   -1.384856    2.019728
     47          8           0       -1.098606    0.831391    2.034395
     48          6           0       -1.469945   -0.325687    2.123593
     49          1           0       -4.235643   -2.148501    2.599460
     50          6           0       -3.170988   -1.991578    2.431382
     51          6           0       -3.752425    0.425139    2.453749
     52          7           0       -2.789482   -0.673344    2.336149
     53          1           0       -6.096807    3.675118   -2.802426
     54          1           0       -4.652590    3.847929   -2.063194
     55          1           0       -6.031515    4.124818   -1.234962
     56          1           0       -3.797831   -2.870369   -0.168625
     57          1           0       -5.443535   -2.425038   -0.227285
     58          7           0       -4.484394   -2.164312   -0.342601
     59          6           0       -4.137411   -0.929680   -0.711997
     60          6           0       -4.550911    1.326981   -1.343056
     61          7           0       -3.255050    1.648772   -1.490102
     62          1           0       -1.409373    0.774699   -1.316656
     63          6           0       -2.480173    0.599860   -1.221321
     64          7           0       -2.825784   -0.637526   -0.851191
     65          1           0       -7.753653    1.768052   -1.334916
     66          6           0       -6.741852    1.368071   -1.262590
     67          7           0       -6.449875    0.136892   -0.921092
     68          6           0       -5.063893    0.097428   -0.968129
     69          6           0       -5.602261    3.561127   -1.940776
     70          7           0       -5.640607    2.143626   -1.531835
 ---------------------------------------------------------------------

 SCF Done:  E(RwB97XD) =  -2048.74540240     A.U. after   15 cycles

 The electronic state is 1-A.
 Alpha  occ. eigenvalues --  -19.25572 -19.21750 -19.20782 -14.52445 -14.52140
 Alpha  occ. eigenvalues --  -14.49212 -14.48806 -14.47757 -14.47447 -14.47053
 Alpha  occ. eigenvalues --  -14.46879 -14.45422 -14.44843 -14.44592 -14.42357
 Alpha  occ. eigenvalues --  -14.42268 -14.41447 -14.40539 -14.40312 -14.40145
 Alpha  occ. eigenvalues --  -10.45152 -10.41481 -10.40382 -10.39858 -10.38435
 Alpha  occ. eigenvalues --  -10.38005 -10.37814 -10.37382 -10.36088 -10.35214
 Alpha  occ. eigenvalues --  -10.34745 -10.34705 -10.33836 -10.33788 -10.33114
 Alpha  occ. eigenvalues --  -10.32924 -10.32714 -10.32667 -10.31289 -10.30962
 Alpha  occ. eigenvalues --  -10.29900 -10.28469 -10.27910  -1.19098  -1.15255
 Alpha  occ. eigenvalues --   -1.13434  -1.12781  -1.10944  -1.10422  -1.09761
 Alpha  occ. eigenvalues --   -1.09011  -1.08773  -1.05219  -1.04754  -1.02129
 Alpha  occ. eigenvalues --   -1.01043  -1.00205  -0.99966  -0.98825  -0.97239
 Alpha  occ. eigenvalues --   -0.96985  -0.96088  -0.92459  -0.90934  -0.87781
 Alpha  occ. eigenvalues --   -0.85921  -0.84488  -0.83286  -0.83161  -0.82851
 Alpha  occ. eigenvalues --   -0.81494  -0.78660  -0.77287  -0.75083  -0.74938
 Alpha  occ. eigenvalues --   -0.73872  -0.73083  -0.72417  -0.70699  -0.70511
 Alpha  occ. eigenvalues --   -0.67647  -0.67105  -0.66320  -0.65825  -0.64593
 Alpha  occ. eigenvalues --   -0.64453  -0.63776  -0.62841  -0.62283  -0.62040
 Alpha  occ. eigenvalues --   -0.60782  -0.60396  -0.59974  -0.59455  -0.59349
 Alpha  occ. eigenvalues --   -0.59150  -0.58587  -0.56980  -0.56112  -0.55913
 Alpha  occ. eigenvalues --   -0.55398  -0.55312  -0.55181  -0.54707  -0.54321
 Alpha  occ. eigenvalues --   -0.53777  -0.53716  -0.53652  -0.53215  -0.52928
 Alpha  occ. eigenvalues --   -0.52699  -0.52139  -0.51015  -0.50420  -0.50163
 Alpha  occ. eigenvalues --   -0.49977  -0.49612  -0.49515  -0.49271  -0.48993
 Alpha  occ. eigenvalues --   -0.48418  -0.48364  -0.48138  -0.47975  -0.47361
 Alpha  occ. eigenvalues --   -0.46350  -0.45704  -0.45523  -0.44540  -0.43568
 Alpha  occ. eigenvalues --   -0.40828  -0.40788  -0.39253  -0.37996  -0.37761
 Alpha  occ. eigenvalues --   -0.37626  -0.37534  -0.36497  -0.35602  -0.35108
 Alpha  occ. eigenvalues --   -0.34632  -0.34254  -0.33207  -0.32963  -0.32942
 Alpha  occ. eigenvalues --   -0.32747  -0.32644  -0.32125  -0.31814  -0.30345
 Alpha  occ. eigenvalues --   -0.30267  -0.29996  -0.25928  -0.25300
 Alpha virt. eigenvalues --    0.03145   0.03900   0.06748   0.08355   0.08731
 Alpha virt. eigenvalues --    0.08949   0.09529   0.10436   0.11395   0.11472
 Alpha virt. eigenvalues --    0.13707   0.14147   0.14373   0.15025   0.15161

 Mulliken charges:
               1
     1  N   -0.310356
     2  C    0.182950
     3  C    0.056861
     4  N   -0.251775
     5  C    0.147580
     6  H    0.026895
     7  N   -0.299211
     8  C    0.129318
     9  H    0.009577
    10  N   -0.283750
    11  C    0.253739
    12  C    0.086575
    13  N   -0.069430
    14  H    0.115078
    15  H    0.082373
    16  H    0.019890
    17  H    0.029770
    18  H    0.030753
    19  N   -0.311071
    20  C    0.255791
    21  C    0.181088
    22  N   -0.124028
    23  H    0.119259
    24  H    0.118813
    25  N   -0.312828
    26  C    0.250109
    27  N   -0.149175
    28  H    0.121126
    29  C    0.196247
    30  O   -0.319188
    31  C   -0.013774
    32  N   -0.233028
    33  C    0.124521
    34  H    0.023269
    35  H    0.027772
    36  H    0.030548
    37  H    0.025498
    38  H    0.065176
    39  H    0.058492
    40  H    0.075654
    41  H    0.025895
    42  C   -0.124323
    43  O   -0.258607
    44  C    0.159947
    45  H    0.135263
    46  N   -0.121430
    47  O   -0.352834
    48  C    0.355316
    49  H    0.040253
    50  C    0.170947
    51  C    0.037701
    52  N   -0.278644
    53  H    0.033958
    54  H    0.042134
    55  H    0.029676
    56  H    0.116628
    57  H    0.118482
    58  N   -0.065571
    59  C    0.085587
    60  C    0.246810
    61  N   -0.270547
    62  H    0.034439
    63  C    0.176516
    64  N   -0.315486
    65  H    0.039364
    66  C    0.141042
    67  N   -0.261864
    68  C    0.023367
    69  C    0.180334
    70  N   -0.311462
 Sum of Mulliken charges =  -0.00000

 Dipole moment (field-independent basis, Debye):
    X=             -7.8953    Y=              7.2522    Z=              0.0738  Tot=             10.7208
 Quadrupole moment (field-independent basis, Debye-Ang):
   XX=           -165.1234   YY=           -217.6490   ZZ=           -248.4873
   XY=              3.9780   XZ=            -16.9015   YZ=              3.2218

 Normal termination of Gaussian 16 at Tue Jan 23 23:25:50 2018.
