 Gaussian 16, Revision A.03,
 Gaussian 16:  EM64L-G16RevA.03 25-Dec-2016

 ---------------------------------------
 #p wb97xd/cc-pvdz sp scf=(maxcycles=20)
 ---------------------------------------

 ------------------
 Base pair stacking
 ------------------
 Symbolic Z-matrix:
 Charge =  0 Multiplicity = 1

                         Standard orientation:
 ---------------------------------------------------------------------
 Center     Atomic      Atomic             Coordinates (Angstroms)
 Number     Number       Type             X           Y           Z
 ---------------------------------------------------------------------
      1          7           0        4.567848   -2.092689   -1.749822
      2          6           0        5.947252   -1.712395   -2.111236
      3          6           0        2.391378   -2.072830   -1.433800
      4          7           0        2.836327   -3.310565   -0.992487
      5          6           0        4.129767   -3.272987   -1.200543
      6          1           0        4.818729   -4.086011   -0.969749
      7          7           0        1.014337   -0.237873   -1.981195
      8          6           0        2.126983    0.375037   -2.398270
      9          1           0        1.984657    1.381384   -2.789764
     10          7           0        3.383151   -0.066460   -2.404311
     11          6           0        3.447271   -1.311209   -1.903406
     12          6           0        1.112168   -1.489580   -1.482459
     13          7           0        0.002626   -2.103046   -1.065619
     14          1           0        0.027980   -3.029847   -0.689315
     15          1           0       -0.891278   -1.657388   -1.115236
     16          1           0        6.303440   -2.352547   -2.792053
     17          1           0        5.950265   -0.787731   -2.490883
     18          1           0        6.526674   -1.738309   -1.296625
     19          7           0        4.908200    2.539098    0.792151
     20          6           0        3.558675    2.335084    0.950926
     21          6           0        5.544167    3.832824    0.471953
     22          7           0        0.312819    3.570140    0.979212
     23          1           0       -0.609657    3.216501    1.131623
     24          1           0        0.396456    4.545257    0.772168
     25          7           0        2.594631    3.274658    0.841968
     26          6           0        1.389899    2.773327    1.049117
     27          7           0        1.145793    1.453153    1.340780
     28          1           0        0.192078    1.158352    1.483850
     29          6           0        2.122305    0.468978    1.457783
     30          8           0        1.795502   -0.694140    1.724430
     31          6           0        3.421733    0.992449    1.237901
     32          7           0        4.660358    0.366140    1.258869
     33          6           0        5.509797    1.320214    0.989760
     34          1           0        6.590354    1.188987    0.922985
     35          1           0        6.041536    3.756954   -0.391567
     36          1           0        4.839784    4.536532    0.388813
     37          1           0        6.179624    4.083366    1.201493
     38          1           0       -4.801717    0.202575    1.447951
     39          1           0       -4.617685    0.276526    3.198760
     40          1           0       -3.588501    1.265278    2.162184
     41          1           0       -2.892846   -4.127298    2.316830
     42          6           0       -2.576983   -3.086862    2.239686
     43          8           0       -0.273772   -3.610255    2.019697
     44          6           0       -1.186737   -2.787129    2.080891
     45          1           0        0.076569   -1.189552    1.880631
     46          7           0       -0.895495   -1.440739    1.993415
     47          8           0       -1.430698    0.765930    1.956464
     48          6           0       -1.784932   -0.396713    2.042804
     49          1           0       -4.536774   -2.264865    2.410957
     50          6           0       -3.468359   -2.090181    2.291273
     51          6           0       -4.093642    0.315405    2.255400
     52          7           0       -3.106578   -0.766299    2.197339
     53          1           0       -5.785425    3.734651   -2.796368
     54          1           0       -4.381964    3.871481   -1.975587
     55          1           0       -5.803769    4.076768   -1.200725
     56          1           0       -3.529355   -2.951417   -0.500255
     57          1           0       -5.176125   -2.520206   -0.611096
     58          7           0       -4.216148   -2.242281   -0.660203
     59          6           0       -3.868378   -0.981749   -0.927193
     60          6           0       -4.281261    1.308372   -1.423788
     61          7           0       -2.984276    1.652894   -1.483483
     62          1           0       -1.137556    0.788187   -1.277306
     63          6           0       -2.209243    0.596144   -1.247884
     64          7           0       -2.555632   -0.667172   -0.980283
     65          1           0       -7.486263    1.714619   -1.546471
     66          6           0       -6.473861    1.321154   -1.450755
     67          7           0       -6.182177    0.072592   -1.179271
     68          6           0       -4.795150    0.050804   -1.159273
     69          6           0       -5.332488    3.567146   -1.920705
     70          7           0       -5.371450    2.124682   -1.611213
 ---------------------------------------------------------------------

 SCF Done:  E(RwB97XD) =  -2048.74792232     A.U. after   15 cycles

 The electronic state is 1-A.
 Alpha  occ. eigenvalues --  -19.25573 -19.21763 -19.20652 -14.52521 -14.52172
 Alpha  occ. eigenvalues --  -14.49047 -14.48728 -14.47884 -14.47461 -14.46934
 Alpha  occ. eigenvalues --  -14.46755 -14.45518 -14.44771 -14.44576 -14.42317
 Alpha  occ. eigenvalues --  -14.42148 -14.41253 -14.40542 -14.40480 -14.40123
 Alpha  occ. eigenvalues --  -10.45178 -10.41353 -10.40351 -10.39884 -10.38310
 Alpha  occ. eigenvalues --  -10.38088 -10.37817 -10.37401 -10.36085 -10.35210
 Alpha  occ. eigenvalues --  -10.34728 -10.34557 -10.33875 -10.33669 -10.33254
 Alpha  occ. eigenvalues --  -10.32918 -10.32730 -10.32727 -10.31155 -10.30918
 Alpha  occ. eigenvalues --  -10.30118 -10.28315 -10.27954  -1.19117  -1.15314
 Alpha  occ. eigenvalues --   -1.13297  -1.12779  -1.10786  -1.10528  -1.09727
 Alpha  occ. eigenvalues --   -1.09028  -1.08651  -1.05187  -1.04746  -1.02141
 Alpha  occ. eigenvalues --   -1.01105  -1.00183  -0.99836  -0.98684  -0.97214
 Alpha  occ. eigenvalues --   -0.96827  -0.96204  -0.92446  -0.90922  -0.87806
 Alpha  occ. eigenvalues --   -0.85986  -0.84336  -0.83292  -0.83250  -0.82711
 Alpha  occ. eigenvalues --   -0.81626  -0.78671  -0.77291  -0.75087  -0.74797
 Alpha  occ. eigenvalues --   -0.73741  -0.73078  -0.72457  -0.70708  -0.70542
 Alpha  occ. eigenvalues --   -0.67514  -0.67101  -0.66310  -0.65858  -0.64502
 Alpha  occ. eigenvalues --   -0.64448  -0.63738  -0.62729  -0.62305  -0.61908
 Alpha  occ. eigenvalues --   -0.60799  -0.60430  -0.60140  -0.59469  -0.59351
 Alpha  occ. eigenvalues --   -0.59171  -0.58461  -0.56840  -0.56166  -0.55862
 Alpha  occ. eigenvalues --   -0.55480  -0.55424  -0.55168  -0.54595  -0.54234
 Alpha  occ. eigenvalues --   -0.53799  -0.53651  -0.53584  -0.53108  -0.52963
 Alpha  occ. eigenvalues --   -0.52760  -0.52142  -0.51132  -0.50327  -0.50189
 Alpha  occ. eigenvalues --   -0.50035  -0.49651  -0.49494  -0.49272  -0.48907
 Alpha  occ. eigenvalues --   -0.48457  -0.48361  -0.48153  -0.47933  -0.47292
 Alpha  occ. eigenvalues --   -0.46422  -0.45708  -0.45498  -0.44450  -0.43495
 Alpha  occ. eigenvalues --   -0.40869  -0.40804  -0.39222  -0.37934  -0.37798
 Alpha  occ. eigenvalues --   -0.37478  -0.37419  -0.36565  -0.35624  -0.35085
 Alpha  occ. eigenvalues --   -0.34633  -0.34114  -0.33175  -0.33006  -0.32826
 Alpha  occ. eigenvalues --   -0.32737  -0.32625  -0.32006  -0.31935  -0.30337
 Alpha  occ. eigenvalues --   -0.30218  -0.30037  -0.25785  -0.25320
 Alpha virt. eigenvalues --    0.02954   0.04045   0.06599   0.08409   0.08860
 Alpha virt. eigenvalues --    0.09103   0.09649   0.10394   0.11375   0.11490
 Alpha virt. eigenvalues --    0.13516   0.14300   0.14503   0.14882   0.15053

 Mulliken charges:
               1
     1  N   -0.310897
     2  C    0.182826
     3  C    0.055452
     4  N   -0.255590
     5  C    0.145515
     6  H    0.026342
     7  N   -0.298067
     8  C    0.130229
     9  H    0.009849
    10  N   -0.284292
    11  C    0.256089
    12  C    0.091915
    13  N   -0.068277
    14  H    0.115424
    15  H    0.083341
    16  H    0.020992
    17  H    0.029895
    18  H    0.029220
    19  N   -0.310802
    20  C    0.256567
    21  C    0.181091
    22  N   -0.123904
    23  H    0.119017
    24  H    0.118144
    25  N   -0.312766
    26  C    0.249899
    27  N   -0.146406
    28  H    0.119617
    29  C    0.193195
    30  O   -0.320511
    31  C   -0.013027
    32  N   -0.231266
    33  C    0.125254
    34  H    0.021977
    35  H    0.028086
    36  H    0.030042
    37  H    0.024894
    38  H    0.065999
    39  H    0.058903
    40  H    0.075280
    41  H    0.025944
    42  C   -0.126347
    43  O   -0.263284
    44  C    0.169623
    45  H    0.133226
    46  N   -0.124385
    47  O   -0.350078
    48  C    0.353143
    49  H    0.041373
    50  C    0.171124
    51  C    0.035142
    52  N   -0.278205
    53  H    0.034237
    54  H    0.041441
    55  H    0.029510
    56  H    0.118474
    57  H    0.117012
    58  N   -0.062100
    59  C    0.090780
    60  C    0.250654
    61  N   -0.272694
    62  H    0.033600
    63  C    0.176908
    64  N   -0.315630
    65  H    0.039482
    66  C    0.138794
    67  N   -0.262010
    68  C    0.015469
    69  C    0.180619
    70  N   -0.311069
 Sum of Mulliken charges =  -0.00000

 Dipole moment (field-independent basis, Debye):
    X=             -8.0767    Y=              7.0062    Z=             -0.5114  Tot=             10.7042
 Quadrupole moment (field-independent basis, Debye-Ang):
   XX=           -162.3930   YY=           -217.8346   ZZ=           -250.6731
   XY=              3.3195   XZ=            -14.3321   YZ=              4.6333

 Normal termination of Gaussian 16 at Tue Jan 23 18:26:08 2018.
