 Gaussian 16, Revision A.03,
 Gaussian 16:  EM64L-G16RevA.03 25-Dec-2016

 ---------------------------------------
 #p wb97xd/cc-pvdz sp scf=(maxcycles=20)
 ---------------------------------------

 ------------------
 Base pair stacking
 ------------------
 Symbolic Z-matrix:
 Charge =  0 Multiplicity = 1

                         Standard orientation:
 ---------------------------------------------------------------------
 Center     Atomic      Atomic             Coordinates (Angstroms)
 Number     Number       Type             X           Y           Z
 ---------------------------------------------------------------------
      1          7           0       -6.362738   -1.543307    0.659774
      2          6           0       -7.737092   -1.031724    0.494111
      3          6           0       -4.186634   -1.681037    0.947760
      4          7           0       -4.646624   -2.985123    0.835956
      5          6           0       -5.939229   -2.849951    0.666927
      6          1           0       -6.637953   -3.677542    0.541153
      7          7           0       -2.787526    0.199820    1.208162
      8          6           0       -3.892351    0.943069    1.087665
      9          1           0       -3.737737    2.019419    1.149620
     10          7           0       -5.153566    0.558179    0.903002
     11          6           0       -5.232906   -0.781333    0.841137
     12          6           0       -2.900654   -1.144742    1.141544
     13          7           0       -1.798941   -1.888383    1.261609
     14          1           0       -1.835637   -2.887389    1.218499
     15          1           0       -0.899826   -1.472495    1.398658
     16          1           0       -8.317526   -1.388491    1.226225
     17          1           0       -7.728773   -0.032969    0.533384
     18          1           0       -8.100153   -1.325839   -0.390018
     19          7           0       -3.059976    2.509207   -1.581719
     20          6           0       -1.727907    2.227258   -1.396871
     21          6           0       -3.693286    3.824309   -1.357831
     22          7           0        1.467895    3.252720   -0.504141
     23          1           0        2.379434    2.848549   -0.433405
     24          1           0        1.380857    4.220319   -0.265653
     25          7           0       -0.781398    3.097236   -0.982982
     26          6           0        0.409230    2.530417   -0.900874
     27          7           0        0.656153    1.212598   -1.200689
     28          1           0        1.598234    0.864645   -1.109181
     29          6           0       -0.302442    0.299323   -1.628360
     30          8           0        0.025327   -0.868385   -1.872816
     31          6           0       -1.586578    0.893652   -1.721409
     32          7           0       -2.805387    0.349312   -2.102332
     33          6           0       -3.647674    1.341854   -2.004267
     34          1           0       -4.712875    1.276810   -2.228767
     35          1           0       -4.403299    3.739655   -0.659606
     36          1           0       -3.001795    4.476950   -1.050946
     37          1           0       -4.101464    4.149014   -2.210326
     38          1           0        6.353607   -0.408332    0.163091
     39          1           0        6.640228   -0.240258   -1.567299
     40          1           0        5.424666    0.762113   -0.774191
     41          1           0        4.529659   -4.561802   -1.439529
     42          6           0        4.256216   -3.508139   -1.382489
     43          8           0        1.953335   -3.893362   -1.801335
     44          6           0        2.889630   -3.128178   -1.571929
     45          1           0        1.698311   -1.464500   -1.607669
     46          7           0        2.652252   -1.771572   -1.479481
     47          8           0        3.266823    0.392255   -1.167525
     48          6           0        3.573638   -0.785234   -1.231067
     49          1           0        6.230081   -2.805642   -0.987316
     50          6           0        5.177730   -2.569014   -1.138633
     51          6           0        5.889167   -0.212595   -0.791920
     52          7           0        4.869572   -1.230666   -1.059689
     53          1           0        4.010591    4.061314    2.455826
     54          1           0        2.873292    3.935433    1.292724
     55          1           0        4.454618    3.828852    0.902696
     56          1           0        1.646589   -2.955929    1.970774
     57          1           0        3.254574   -2.548586    2.368953
     58          7           0        2.348819   -2.250263    2.065928
     59          6           0        2.089969   -0.968132    1.800750
     60          6           0        2.623443    1.342726    1.608237
     61          7           0        1.397877    1.714429    1.202982
     62          1           0       -0.428117    0.871813    0.807523
     63          6           0        0.590101    0.658454    1.129976
     64          7           0        0.847462   -0.626467    1.395142
     65          1           0        5.727101    1.697214    2.441197
     66          6           0        4.730876    1.316852    2.213605
     67          7           0        4.376055    0.058157    2.300120
     68          6           0        3.042086    0.060668    1.919007
     69          6           0        3.768381    3.610554    1.596677
     70          7           0        3.719665    2.149733    1.800717
 ---------------------------------------------------------------------

 SCF Done:  E(RwB97XD) =  -2048.69234795     A.U. after   15 cycles

 The electronic state is 1-A.
 Alpha  occ. eigenvalues --  -19.25863 -19.21906 -19.20594 -14.52365 -14.52255
 Alpha  occ. eigenvalues --  -14.48966 -14.48617 -14.47830 -14.47692 -14.46589
 Alpha  occ. eigenvalues --  -14.45734 -14.45160 -14.43639 -14.42578 -14.42458
 Alpha  occ. eigenvalues --  -14.42066 -14.41628 -14.41198 -14.40628 -14.40394
 Alpha  occ. eigenvalues --  -10.45454 -10.40734 -10.40033 -10.39342 -10.38077
 Alpha  occ. eigenvalues --  -10.37731 -10.37672 -10.36661 -10.35690 -10.35211
 Alpha  occ. eigenvalues --  -10.35012 -10.34398 -10.34292 -10.34224 -10.33581
 Alpha  occ. eigenvalues --  -10.33363 -10.33121 -10.31943 -10.31164 -10.31054
 Alpha  occ. eigenvalues --  -10.30746 -10.28750 -10.27990  -1.19447  -1.14921
 Alpha  occ. eigenvalues --   -1.13287  -1.12943  -1.11551  -1.10509  -1.09259
 Alpha  occ. eigenvalues --   -1.08965  -1.08329  -1.05239  -1.04280  -1.02435
 Alpha  occ. eigenvalues --   -1.00841  -1.00725  -0.99628  -0.98538  -0.97199
 Alpha  occ. eigenvalues --   -0.96521  -0.96178  -0.92911  -0.90974  -0.87397
 Alpha  occ. eigenvalues --   -0.85991  -0.84163  -0.83970  -0.83500  -0.82537
 Alpha  occ. eigenvalues --   -0.82384  -0.78808  -0.76708  -0.74658  -0.74562
 Alpha  occ. eigenvalues --   -0.73513  -0.73296  -0.73155  -0.71329  -0.70191
 Alpha  occ. eigenvalues --   -0.67304  -0.66602  -0.66574  -0.66423  -0.64385
 Alpha  occ. eigenvalues --   -0.64102  -0.63674  -0.62991  -0.62862  -0.61711
 Alpha  occ. eigenvalues --   -0.60623  -0.60480  -0.60195  -0.59465  -0.59327
 Alpha  occ. eigenvalues --   -0.59265  -0.58158  -0.57205  -0.56656  -0.56509
 Alpha  occ. eigenvalues --   -0.55998  -0.55630  -0.55607  -0.55054  -0.54280
 Alpha  occ. eigenvalues --   -0.54050  -0.53541  -0.53087  -0.52875  -0.52743
 Alpha  occ. eigenvalues --   -0.52316  -0.52220  -0.51974  -0.51025  -0.50425
 Alpha  occ. eigenvalues --   -0.50054  -0.49475  -0.49363  -0.48858  -0.48754
 Alpha  occ. eigenvalues --   -0.48659  -0.48271  -0.48076  -0.47902  -0.47326
 Alpha  occ. eigenvalues --   -0.47133  -0.46041  -0.45151  -0.43842  -0.43598
 Alpha  occ. eigenvalues --   -0.41415  -0.40771  -0.39456  -0.37809  -0.37523
 Alpha  occ. eigenvalues --   -0.37421  -0.37208  -0.36529  -0.35933  -0.34593
 Alpha  occ. eigenvalues --   -0.34192  -0.33792  -0.33641  -0.33090  -0.32595
 Alpha  occ. eigenvalues --   -0.32387  -0.31876  -0.31751  -0.31137  -0.30895
 Alpha  occ. eigenvalues --   -0.30538  -0.28845  -0.26095  -0.24918
 Alpha virt. eigenvalues --    0.03143   0.04459   0.07310   0.07769   0.08636
 Alpha virt. eigenvalues --    0.09313   0.09739   0.10722   0.11064   0.11660
 Alpha virt. eigenvalues --    0.12858   0.14018   0.14088   0.14577   0.14884

 Mulliken charges:
               1
     1  N   -0.312826
     2  C    0.180868
     3  C    0.043915
     4  N   -0.260840
     5  C    0.135038
     6  H    0.027183
     7  N   -0.284162
     8  C    0.136384
     9  H    0.007862
    10  N   -0.291923
    11  C    0.246066
    12  C    0.119448
    13  N   -0.056210
    14  H    0.107829
    15  H    0.086717
    16  H    0.025756
    17  H    0.032301
    18  H    0.027081
    19  N   -0.302721
    20  C    0.236766
    21  C    0.178922
    22  N   -0.065786
    23  H    0.105454
    24  H    0.114803
    25  N   -0.290935
    26  C    0.198086
    27  N   -0.125103
    28  H    0.120747
    29  C    0.143342
    30  O   -0.318517
    31  C    0.026587
    32  N   -0.222579
    33  C    0.121700
    34  H    0.024065
    35  H    0.030899
    36  H    0.027158
    37  H    0.024292
    38  H    0.062789
    39  H    0.058229
    40  H    0.070176
    41  H    0.030761
    42  C   -0.113559
    43  O   -0.264682
    44  C    0.176252
    45  H    0.133364
    46  N   -0.130768
    47  O   -0.345213
    48  C    0.353582
    49  H    0.047505
    50  C    0.171777
    51  C    0.040602
    52  N   -0.289329
    53  H    0.039707
    54  H    0.016618
    55  H    0.032144
    56  H    0.122518
    57  H    0.116016
    58  N   -0.066996
    59  C    0.094696
    60  C    0.248417
    61  N   -0.297349
    62  H    0.036697
    63  C    0.182912
    64  N   -0.302481
    65  H    0.032364
    66  C    0.128020
    67  N   -0.260425
    68  C    0.019603
    69  C    0.172767
    70  N   -0.314381
 Sum of Mulliken charges =  -0.00000

 Dipole moment (field-independent basis, Debye):
    X=              7.4529    Y=              5.7953    Z=              3.2514  Tot=              9.9851
 Quadrupole moment (field-independent basis, Debye-Ang):
   XX=           -150.0354   YY=           -221.7009   ZZ=           -255.7507
   XY=              2.8444   XZ=              5.9945   YZ=            -11.3933

 Normal termination of Gaussian 16 at Tue Jan 23 20:33:39 2018.
