 Gaussian 16, Revision A.03,
 Gaussian 16:  EM64L-G16RevA.03 25-Dec-2016

 ---------------------------------------
 #p wb97xd/cc-pvdz sp scf=(maxcycles=20)
 ---------------------------------------

 ------------------
 Base pair stacking
 ------------------
 Symbolic Z-matrix:
 Charge =  0 Multiplicity = 1

                         Standard orientation:
 ---------------------------------------------------------------------
 Center     Atomic      Atomic             Coordinates (Angstroms)
 Number     Number       Type             X           Y           Z
 ---------------------------------------------------------------------
      1          7           0       -5.879439   -1.822672    0.932181
      2          6           0       -7.273417   -1.381083    1.131762
      3          6           0       -3.682223   -1.918894    0.914413
      4          7           0       -4.126924   -3.094313    0.326736
      5          6           0       -5.432864   -2.989293    0.360962
      6          1           0       -6.125455   -3.740332   -0.020090
      7          7           0       -2.298715   -0.214390    1.776666
      8          6           0       -3.424223    0.438379    2.084388
      9          1           0       -3.284195    1.405699    2.564961
     10          7           0       -4.690792    0.077334    1.888525
     11          6           0       -4.750987   -1.125079    1.292706
     12          6           0       -2.392908   -1.421756    1.177933
     13          7           0       -1.270526   -2.074898    0.869982
     14          1           0       -1.292747   -2.971372    0.426073
     15          1           0       -0.369703   -1.690604    1.072385
     16          1           0       -7.754192   -2.041166    1.709103
     17          1           0       -7.279816   -0.485183    1.574994
     18          1           0       -7.734766   -1.316607    0.246893
     19          7           0       -3.557874    2.844494   -1.399593
     20          6           0       -2.214007    2.559418   -1.371197
     21          6           0       -4.152593    4.177780   -1.177439
     22          7           0        1.073811    3.601432   -0.963525
     23          1           0        1.985516    3.192135   -0.986246
     24          1           0        1.021522    4.582661   -0.775987
     25          7           0       -1.219054    3.442297   -1.137476
     26          6           0       -0.029655    2.868236   -1.174915
     27          7           0        0.172096    1.531945   -1.422158
     28          1           0        1.116966    1.179677   -1.431730
     29          6           0       -0.836764    0.605152   -1.665292
     30          8           0       -0.547203   -0.578858   -1.877459
     31          6           0       -2.120212    1.207044   -1.628308
     32          7           0       -3.379839    0.654232   -1.814365
     33          6           0       -4.199121    1.660264   -1.669848
     34          1           0       -5.284634    1.593618   -1.750515
     35          1           0       -4.766452    4.143689   -0.389518
     36          1           0       -3.425083    4.840091   -1.003272
     37          1           0       -4.666723    4.454604   -1.988515
     38          1           0        5.992950   -0.066726   -0.707855
     39          1           0        6.053539   -0.007390   -2.467813
     40          1           0        4.954196    1.054890   -1.587824
     41          1           0        3.963373   -4.289275   -1.802095
     42          6           0        3.703027   -3.231104   -1.775383
     43          8           0        1.364051   -3.615284   -1.868858
     44          6           0        2.324643   -2.848093   -1.809924
     45          1           0        1.144115   -1.176436   -1.794207
     46          7           0        2.105623   -1.485813   -1.771542
     47          8           0        2.762403    0.685973   -1.675720
     48          6           0        3.054604   -0.496560   -1.705521
     49          1           0        5.713711   -2.528015   -1.682467
     50          6           0        4.651384   -2.289264   -1.710981
     51          6           0        5.409341    0.075766   -1.605163
     52          7           0        4.360375   -0.945219   -1.675695
     53          1           0        4.524005    3.259987    3.791983
     54          1           0        3.257284    3.538767    2.802140
     55          1           0        4.781739    3.704994    2.243115
     56          1           0        2.255486   -3.104518    0.724022
     57          1           0        3.891565   -2.786013    1.087207
     58          7           0        2.950231   -2.452112    1.027076
     59          6           0        2.636414   -1.192611    1.337464
     60          6           0        3.097762    1.029165    2.053430
     61          7           0        1.825247    1.449888    1.963317
     62          1           0       -0.018419    0.718566    1.446887
     63          6           0        1.035227    0.461860    1.547868
     64          7           0        1.347633   -0.800284    1.236482
     65          1           0        6.271797    1.224017    2.636268
     66          6           0        5.262966    0.902192    2.376221
     67          7           0        4.945696   -0.304864    1.976197
     68          6           0        3.575673   -0.237994    1.768073
     69          6           0        4.188668    3.179548    2.853332
     70          7           0        4.193310    1.761108    2.445891
 ---------------------------------------------------------------------

 SCF Done:  E(RwB97XD) =  -2048.74610135     A.U. after   15 cycles

 The electronic state is 1-A.
 Alpha  occ. eigenvalues --  -19.26043 -19.22615 -19.20714 -14.52640 -14.52138
 Alpha  occ. eigenvalues --  -14.48827 -14.48251 -14.47990 -14.47722 -14.47057
 Alpha  occ. eigenvalues --  -14.46804 -14.45268 -14.43870 -14.43869 -14.42121
 Alpha  occ. eigenvalues --  -14.41709 -14.40904 -14.40834 -14.40457 -14.39790
 Alpha  occ. eigenvalues --  -10.45656 -10.41341 -10.40588 -10.39512 -10.38317
 Alpha  occ. eigenvalues --  -10.38037 -10.37751 -10.36815 -10.35326 -10.35037
 Alpha  occ. eigenvalues --  -10.34917 -10.34397 -10.33667 -10.33536 -10.33359
 Alpha  occ. eigenvalues --  -10.32821 -10.32654 -10.32330 -10.31408 -10.30945
 Alpha  occ. eigenvalues --  -10.30635 -10.28163 -10.27967  -1.19610  -1.14868
 Alpha  occ. eigenvalues --   -1.13566  -1.13298  -1.10803  -1.10649  -1.09524
 Alpha  occ. eigenvalues --   -1.08887  -1.08665  -1.04535  -1.04438  -1.02722
 Alpha  occ. eigenvalues --   -1.00688  -0.99929  -0.99863  -0.98636  -0.96646
 Alpha  occ. eigenvalues --   -0.96552  -0.96314  -0.92187  -0.91325  -0.87282
 Alpha  occ. eigenvalues --   -0.85611  -0.84171  -0.83658  -0.83457  -0.82554
 Alpha  occ. eigenvalues --   -0.81863  -0.79124  -0.76680  -0.74706  -0.74427
 Alpha  occ. eigenvalues --   -0.73770  -0.73572  -0.72416  -0.70575  -0.70074
 Alpha  occ. eigenvalues --   -0.67488  -0.66731  -0.66462  -0.65810  -0.64648
 Alpha  occ. eigenvalues --   -0.63983  -0.63826  -0.62776  -0.62227  -0.61847
 Alpha  occ. eigenvalues --   -0.60342  -0.60107  -0.59987  -0.59663  -0.59188
 Alpha  occ. eigenvalues --   -0.59077  -0.58487  -0.56666  -0.56149  -0.56118
 Alpha  occ. eigenvalues --   -0.55959  -0.55096  -0.54868  -0.54587  -0.54336
 Alpha  occ. eigenvalues --   -0.53782  -0.53640  -0.53325  -0.53155  -0.53076
 Alpha  occ. eigenvalues --   -0.52503  -0.52457  -0.51359  -0.50324  -0.50275
 Alpha  occ. eigenvalues --   -0.49820  -0.49651  -0.49478  -0.49087  -0.48848
 Alpha  occ. eigenvalues --   -0.48586  -0.48426  -0.48312  -0.47739  -0.47511
 Alpha  occ. eigenvalues --   -0.46498  -0.45752  -0.44726  -0.44479  -0.44027
 Alpha  occ. eigenvalues --   -0.40624  -0.40391  -0.39594  -0.37426  -0.37370
 Alpha  occ. eigenvalues --   -0.37333  -0.37177  -0.36671  -0.36200  -0.34538
 Alpha  occ. eigenvalues --   -0.34120  -0.33911  -0.33669  -0.33022  -0.32979
 Alpha  occ. eigenvalues --   -0.32708  -0.32528  -0.32374  -0.31944  -0.30440
 Alpha  occ. eigenvalues --   -0.29991  -0.29509  -0.25665  -0.25045
 Alpha virt. eigenvalues --    0.02616   0.04319   0.07396   0.08276   0.08441
 Alpha virt. eigenvalues --    0.09216   0.09705   0.10836   0.11527   0.12082
 Alpha virt. eigenvalues --    0.12802   0.14466   0.14798   0.14860   0.15118

 Mulliken charges:
               1
     1  N   -0.312932
     2  C    0.180939
     3  C    0.052925
     4  N   -0.258148
     5  C    0.135059
     6  H    0.024704
     7  N   -0.296528
     8  C    0.135797
     9  H    0.008591
    10  N   -0.292822
    11  C    0.247180
    12  C    0.111561
    13  N   -0.051521
    14  H    0.113419
    15  H    0.085595
    16  H    0.024400
    17  H    0.032047
    18  H    0.024567
    19  N   -0.311540
    20  C    0.250822
    21  C    0.180578
    22  N   -0.118396
    23  H    0.113753
    24  H    0.116641
    25  N   -0.310376
    26  C    0.243824
    27  N   -0.148598
    28  H    0.121386
    29  C    0.187874
    30  O   -0.322327
    31  C   -0.009092
    32  N   -0.226086
    33  C    0.133282
    34  H    0.023387
    35  H    0.030307
    36  H    0.028593
    37  H    0.024246
    38  H    0.062781
    39  H    0.058644
    40  H    0.071663
    41  H    0.028732
    42  C   -0.113158
    43  O   -0.266414
    44  C    0.143547
    45  H    0.133716
    46  N   -0.109699
    47  O   -0.342121
    48  C    0.335979
    49  H    0.049034
    50  C    0.166614
    51  C    0.039071
    52  N   -0.278411
    53  H    0.033935
    54  H    0.042248
    55  H    0.025864
    56  H    0.129271
    57  H    0.115285
    58  N   -0.053388
    59  C    0.075977
    60  C    0.250025
    61  N   -0.272776
    62  H    0.039366
    63  C    0.164330
    64  N   -0.304516
    65  H    0.035324
    66  C    0.137880
    67  N   -0.268895
    68  C    0.029527
    69  C    0.179312
    70  N   -0.311862
 Sum of Mulliken charges =  -0.00000

 Dipole moment (field-independent basis, Debye):
    X=              8.3978    Y=              6.3523    Z=              1.3971  Tot=             10.6220
 Quadrupole moment (field-independent basis, Debye-Ang):
   XX=           -153.8497   YY=           -218.3956   ZZ=           -251.8352
   XY=             -0.2144   XZ=              1.0691   YZ=             -3.0825

 Normal termination of Gaussian 16 at Tue Jan 23 19:34:55 2018.
