 Gaussian 16, Revision A.03,
 Gaussian 16:  EM64L-G16RevA.03 25-Dec-2016

 ---------------------------------------
 #p wb97xd/cc-pvdz sp scf=(maxcycles=20)
 ---------------------------------------

 ------------------
 Base pair stacking
 ------------------
 Symbolic Z-matrix:
 Charge =  0 Multiplicity = 1

                         Standard orientation:
 ---------------------------------------------------------------------
 Center     Atomic      Atomic             Coordinates (Angstroms)
 Number     Number       Type             X           Y           Z
 ---------------------------------------------------------------------
      1          7           0        5.220013   -1.859509   -1.423862
      2          6           0        6.615291   -1.406997   -1.586473
      3          6           0        3.023444   -1.924400   -1.333252
      4          7           0        3.462666   -3.202918   -1.021481
      5          6           0        4.768431   -3.112663   -1.088551
      6          1           0        5.457316   -3.936857   -0.901249
      7          7           0        1.648267   -0.057203   -1.763822
      8          6           0        2.776153    0.628371   -1.976958
      9          1           0        2.640533    1.676527   -2.240106
     10          7           0        4.040474    0.215531   -1.914125
     11          6           0        4.095256   -1.085331   -1.583695
     12          6           0        1.737003   -1.364023   -1.433026
     13          7           0        0.612239   -2.050065   -1.219875
     14          1           0        0.630425   -3.019543   -0.972865
     15          1           0       -0.286424   -1.618608   -1.299790
     16          1           0        7.057925   -1.939577   -2.308001
     17          1           0        6.625706   -0.438666   -1.834161
     18          1           0        7.111636   -1.535039   -0.727845
     19          7           0        4.281146    2.566986    1.157995
     20          6           0        2.929020    2.324197    1.187458
     21          6           0        4.907926    3.872886    0.870799
     22          7           0       -0.338067    3.457156    0.864481
     23          1           0       -1.260449    3.078099    0.933505
     24          1           0       -0.262615    4.429766    0.643006
     25          7           0        1.953692    3.230518    0.960820
     26          6           0        0.749425    2.696189    1.059967
     27          7           0        0.515995    1.375550    1.358165
     28          1           0       -0.438257    1.054102    1.413358
     29          6           0        1.504202    0.425204    1.595133
     30          8           0        1.186437   -0.741621    1.856442
     31          6           0        2.803288    0.984360    1.492129
     32          7           0        4.051365    0.397797    1.650758
     33          6           0        4.895269    1.372069    1.443782
     34          1           0        5.980451    1.273404    1.487418
     35          1           0        5.490827    3.794205    0.062817
     36          1           0        4.195160    4.552220    0.701281
     37          1           0        5.460019    4.158766    1.653270
     38          1           0       -5.373721   -0.058378    0.907112
     39          1           0       -5.367203    0.058721    2.665207
     40          1           0       -4.269087    1.056889    1.711689
     41          1           0       -3.435739   -4.306693    2.065822
     42          6           0       -3.144163   -3.258745    1.994943
     43          8           0       -0.816254   -3.714231    2.016638
     44          6           0       -1.754324   -2.919021    1.967160
     45          1           0       -0.524362   -1.287246    1.853908
     46          7           0       -1.495099   -1.566328    1.876100
     47          8           0       -2.087922    0.621176    1.732607
     48          6           0       -2.415030   -0.549894    1.811824
     49          1           0       -5.134344   -2.495134    1.951473
     50          6           0       -4.064859   -2.289623    1.933813
     51          6           0       -4.753164    0.093840    1.777627
     52          7           0       -3.734179   -0.957367    1.843856
     53          1           0       -5.163332    3.862405   -2.723613
     54          1           0       -3.853362    3.910019   -1.752120
     55          1           0       -5.350911    3.979070   -1.106638
     56          1           0       -2.928785   -3.034566   -1.141169
     57          1           0       -4.569663   -2.622956   -1.360683
     58          7           0       -3.619135   -2.323033   -1.272598
     59          6           0       -3.287980   -1.031354   -1.328090
     60          6           0       -3.724172    1.297440   -1.547542
     61          7           0       -2.439615    1.671071   -1.426212
     62          1           0       -0.595168    0.820734   -1.151326
     63          6           0       -1.657650    0.606489   -1.258563
     64          7           0       -1.987415   -0.687998   -1.202709
     65          1           0       -6.912791    1.656889   -1.942136
     66          6           0       -5.902549    1.272904   -1.797515
     67          7           0       -5.598591    0.004404   -1.670307
     68          6           0       -4.220401    0.005952   -1.511146
     69          6           0       -4.794195    3.583330   -1.837133
     70          7           0       -4.816498    2.111376   -1.732870
 ---------------------------------------------------------------------

 SCF Done:  E(RwB97XD) =  -2048.75177800     A.U. after   15 cycles

 The electronic state is 1-A.
 Alpha  occ. eigenvalues --  -19.25542 -19.21810 -19.20461 -14.52660 -14.52201
 Alpha  occ. eigenvalues --  -14.48693 -14.48550 -14.48229 -14.47516 -14.46728
 Alpha  occ. eigenvalues --  -14.46404 -14.45682 -14.44529 -14.44521 -14.42274
 Alpha  occ. eigenvalues --  -14.41885 -14.40859 -14.40836 -14.40659 -14.40118
 Alpha  occ. eigenvalues --  -10.45179 -10.41081 -10.40236 -10.39914 -10.38225
 Alpha  occ. eigenvalues --  -10.38089 -10.37691 -10.37416 -10.35993 -10.35265
 Alpha  occ. eigenvalues --  -10.34636 -10.34238 -10.34068 -10.33586 -10.33293
 Alpha  occ. eigenvalues --  -10.32943 -10.32883 -10.32840 -10.30942 -10.30851
 Alpha  occ. eigenvalues --  -10.30559 -10.28131 -10.27994  -1.19152  -1.15402
 Alpha  occ. eigenvalues --   -1.13045  -1.12810  -1.10828  -1.10471  -1.09559
 Alpha  occ. eigenvalues --   -1.09064  -1.08391  -1.05077  -1.04805  -1.02184
 Alpha  occ. eigenvalues --   -1.01205  -1.00244  -0.99521  -0.98413  -0.97104
 Alpha  occ. eigenvalues --   -0.96504  -0.96491  -0.92500  -0.90873  -0.87827
 Alpha  occ. eigenvalues --   -0.86097  -0.84004  -0.83517  -0.83261  -0.82406
 Alpha  occ. eigenvalues --   -0.81933  -0.78673  -0.77259  -0.75065  -0.74495
 Alpha  occ. eigenvalues --   -0.73464  -0.73075  -0.72620  -0.70775  -0.70618
 Alpha  occ. eigenvalues --   -0.67216  -0.67056  -0.66282  -0.66020  -0.64492
 Alpha  occ. eigenvalues --   -0.64284  -0.63613  -0.62532  -0.62460  -0.61596
 Alpha  occ. eigenvalues --   -0.60768  -0.60477  -0.60360  -0.59528  -0.59336
 Alpha  occ. eigenvalues --   -0.59148  -0.58141  -0.56601  -0.56318  -0.55858
 Alpha  occ. eigenvalues --   -0.55763  -0.55536  -0.55255  -0.54398  -0.54022
 Alpha  occ. eigenvalues --   -0.53905  -0.53511  -0.53481  -0.53094  -0.52961
 Alpha  occ. eigenvalues --   -0.52823  -0.52115  -0.51428  -0.50364  -0.50172
 Alpha  occ. eigenvalues --   -0.50021  -0.49811  -0.49394  -0.49183  -0.48693
 Alpha  occ. eigenvalues --   -0.48627  -0.48290  -0.48149  -0.47552  -0.47175
 Alpha  occ. eigenvalues --   -0.46614  -0.45736  -0.45265  -0.44374  -0.43527
 Alpha  occ. eigenvalues --   -0.40973  -0.40824  -0.39180  -0.37822  -0.37782
 Alpha  occ. eigenvalues --   -0.37219  -0.37168  -0.36742  -0.35727  -0.34946
 Alpha  occ. eigenvalues --   -0.34589  -0.33803  -0.33224  -0.33122  -0.32920
 Alpha  occ. eigenvalues --   -0.32564  -0.32352  -0.32125  -0.31782  -0.30563
 Alpha  occ. eigenvalues --   -0.30222  -0.29985  -0.25534  -0.25311
 Alpha virt. eigenvalues --    0.02862   0.04135   0.06511   0.08257   0.09027
 Alpha virt. eigenvalues --    0.09331   0.09893   0.10236   0.11264   0.11879
 Alpha virt. eigenvalues --    0.12768   0.14391   0.14548   0.14853   0.15070

 Mulliken charges:
               1
     1  N   -0.312350
     2  C    0.181913
     3  C    0.054957
     4  N   -0.259785
     5  C    0.140763
     6  H    0.025970
     7  N   -0.296475
     8  C    0.132996
     9  H    0.010854
    10  N   -0.286901
    11  C    0.257894
    12  C    0.100246
    13  N   -0.057836
    14  H    0.112330
    15  H    0.082088
    16  H    0.023274
    17  H    0.030040
    18  H    0.027415
    19  N   -0.307199
    20  C    0.250922
    21  C    0.180829
    22  N   -0.113597
    23  H    0.113846
    24  H    0.115607
    25  N   -0.310024
    26  C    0.238125
    27  N   -0.143933
    28  H    0.117652
    29  C    0.191130
    30  O   -0.322803
    31  C   -0.016898
    32  N   -0.225672
    33  C    0.129032
    34  H    0.019434
    35  H    0.029335
    36  H    0.028588
    37  H    0.023575
    38  H    0.062810
    39  H    0.058728
    40  H    0.072943
    41  H    0.026878
    42  C   -0.117615
    43  O   -0.265076
    44  C    0.170374
    45  H    0.131212
    46  N   -0.121231
    47  O   -0.341139
    48  C    0.337156
    49  H    0.044367
    50  C    0.166690
    51  C    0.035605
    52  N   -0.277954
    53  H    0.035037
    54  H    0.039144
    55  H    0.029364
    56  H    0.122066
    57  H    0.115338
    58  N   -0.055830
    59  C    0.091594
    60  C    0.254552
    61  N   -0.275294
    62  H    0.036419
    63  C    0.170879
    64  N   -0.309368
    65  H    0.038786
    66  C    0.136321
    67  N   -0.263274
    68  C    0.014788
    69  C    0.180641
    70  N   -0.310254
 Sum of Mulliken charges =  -0.00000

 Dipole moment (field-independent basis, Debye):
    X=             -8.1930    Y=              6.4616    Z=             -1.7521  Tot=             10.5805
 Quadrupole moment (field-independent basis, Debye-Ang):
   XX=           -157.2248   YY=           -218.6457   ZZ=           -254.0080
   XY=              1.5513   XZ=             -7.6346   YZ=              7.4417

 Normal termination of Gaussian 16 at Tue Jan 23 13:48:08 2018.
