 Gaussian 16, Revision A.03,
 Gaussian 16:  EM64L-G16RevA.03 25-Dec-2016

 ---------------------------------------
 #p wb97xd/cc-pvdz sp scf=(maxcycles=20)
 ---------------------------------------

 ------------------
 Base pair stacking
 ------------------
 Symbolic Z-matrix:
 Charge =  0 Multiplicity = 1

                         Standard orientation:
 ---------------------------------------------------------------------
 Center     Atomic      Atomic             Coordinates (Angstroms)
 Number     Number       Type             X           Y           Z
 ---------------------------------------------------------------------
      1          7           0       -6.162267   -1.689098    0.765182
      2          6           0       -7.554577   -1.209639    0.863205
      3          6           0       -3.968515   -1.820541    0.851770
      4          7           0       -4.410875   -3.037580    0.353922
      5          6           0       -5.714822   -2.909685    0.321676
      6          1           0       -6.405242   -3.681511   -0.019712
      7          7           0       -2.589617   -0.066175    1.615836
      8          6           0       -3.714192    0.629257    1.814057
      9          1           0       -3.575720    1.634048    2.210881
     10          7           0       -4.978182    0.271520    1.596717
     11          6           0       -5.036626   -0.979102    1.109934
     12          6           0       -2.681998   -1.321463    1.125125
     13          7           0       -1.560549   -2.017241    0.926565
     14          1           0       -1.581493   -2.949982    0.564940
     15          1           0       -0.661721   -1.630102    1.132403
     16          1           0       -8.071817   -1.806860    1.476372
     17          1           0       -7.562199   -0.277094    1.222974
     18          1           0       -7.977097   -1.218921   -0.043096
     19          7           0       -3.244129    2.780528   -1.556874
     20          6           0       -1.905630    2.484224   -1.463614
     21          6           0       -3.836286    4.121208   -1.376301
     22          7           0        1.369302    3.502280   -0.915772
     23          1           0        2.277318    3.084939   -0.892173
     24          1           0        1.317358    4.485899   -0.741105
     25          7           0       -0.914491    3.360998   -1.193520
     26          6           0        0.270094    2.776348   -1.170113
     27          7           0        0.470849    1.435765   -1.393822
     28          1           0        1.411911    1.075303   -1.356154
     29          6           0       -0.534154    0.515099   -1.673490
     30          8           0       -0.245915   -0.673593   -1.859702
     31          6           0       -1.812415    1.128384   -1.701974
     32          7           0       -3.067133    0.584440   -1.940103
     33          6           0       -3.883012    1.598988   -1.844008
     34          1           0       -4.964221    1.540820   -1.973904
     35          1           0       -4.486014    4.100958   -0.617193
     36          1           0       -3.111567    4.779095   -1.175735
     37          1           0       -4.310036    4.393627   -2.213061
     38          1           0        6.237914   -0.205055   -0.395380
     39          1           0        6.379909   -0.165363   -2.151197
     40          1           0        5.250972    0.915827   -1.333948
     41          1           0        4.222495   -4.421634   -1.537809
     42          6           0        3.970831   -3.361032   -1.534183
     43          8           0        1.635236   -3.726066   -1.731313
     44          6           0        2.599033   -2.966569   -1.636197
     45          1           0        1.434272   -1.284750   -1.692370
     46          7           0        2.390872   -1.602123   -1.622176
     47          8           0        3.062274    0.564852   -1.518892
     48          6           0        3.344778   -0.620411   -1.522844
     49          1           0        5.981418   -2.674295   -1.356054
     50          6           0        4.923744   -2.426734   -1.435988
     51          6           0        5.697514   -0.067303   -1.320065
     52          7           0        4.643654   -1.079937   -1.428188
     53          1           0        4.208632    3.471355    3.603804
     54          1           0        2.990144    3.678356    2.538660
     55          1           0        4.539619    3.769337    2.033751
     56          1           0        1.947891   -3.110339    1.027761
     57          1           0        3.573170   -2.785424    1.431495
     58          7           0        2.641819   -2.443864    1.300556
     59          6           0        2.339717   -1.156613    1.481906
     60          6           0        2.813578    1.113749    2.013559
     61          7           0        1.554339    1.544151    1.830532
     62          1           0       -0.279868    0.797447    1.302592
     63          6           0        0.763448    0.534736    1.472099
     64          7           0        1.064135   -0.755220    1.289924
     65          1           0        5.963576    1.311749    2.713926
     66          6           0        4.960488    0.983220    2.440387
     67          7           0        4.636953   -0.250213    2.137651
     68          6           0        3.278406   -0.181385    1.864934
     69          6           0        3.911436    3.310921    2.662565
     70          7           0        3.905688    1.861354    2.385564
 ---------------------------------------------------------------------

 SCF Done:  E(RwB97XD) =  -2048.74827213     A.U. after   15 cycles

 The electronic state is 1-A.
 Alpha  occ. eigenvalues --  -19.26004 -19.22429 -19.20684 -14.52586 -14.52053
 Alpha  occ. eigenvalues --  -14.48764 -14.48478 -14.47922 -14.47492 -14.46993
 Alpha  occ. eigenvalues --  -14.46769 -14.45148 -14.43717 -14.43697 -14.42086
 Alpha  occ. eigenvalues --  -14.41909 -14.41085 -14.40823 -14.40650 -14.39932
 Alpha  occ. eigenvalues --  -10.45620 -10.41275 -10.40477 -10.39341 -10.38272
 Alpha  occ. eigenvalues --  -10.38045 -10.37644 -10.36686 -10.35207 -10.35112
 Alpha  occ. eigenvalues --  -10.35090 -10.34353 -10.33769 -10.33684 -10.33284
 Alpha  occ. eigenvalues --  -10.33040 -10.32835 -10.32163 -10.31353 -10.30874
 Alpha  occ. eigenvalues --  -10.30803 -10.28191 -10.28113  -1.19571  -1.14758
 Alpha  occ. eigenvalues --   -1.13412  -1.13258  -1.11035  -1.10596  -1.09467
 Alpha  occ. eigenvalues --   -1.08709  -1.08611  -1.04703  -1.04265  -1.02652
 Alpha  occ. eigenvalues --   -1.00569  -1.00129  -0.99823  -0.98589  -0.96692
 Alpha  occ. eigenvalues --   -0.96582  -0.96226  -0.92363  -0.91264  -0.87174
 Alpha  occ. eigenvalues --   -0.85552  -0.84112  -0.83664  -0.83646  -0.82494
 Alpha  occ. eigenvalues --   -0.82059  -0.79058  -0.76537  -0.74649  -0.74288
 Alpha  occ. eigenvalues --   -0.73723  -0.73511  -0.72614  -0.70772  -0.69927
 Alpha  occ. eigenvalues --   -0.67436  -0.66682  -0.66294  -0.66015  -0.64580
 Alpha  occ. eigenvalues --   -0.63854  -0.63747  -0.62742  -0.62424  -0.61792
 Alpha  occ. eigenvalues --   -0.60209  -0.60072  -0.59978  -0.59633  -0.59152
 Alpha  occ. eigenvalues --   -0.59022  -0.58445  -0.56638  -0.56299  -0.56154
 Alpha  occ. eigenvalues --   -0.56091  -0.55196  -0.54893  -0.54568  -0.54438
 Alpha  occ. eigenvalues --   -0.53725  -0.53667  -0.53134  -0.53037  -0.53014
 Alpha  occ. eigenvalues --   -0.52474  -0.52339  -0.51540  -0.50483  -0.50246
 Alpha  occ. eigenvalues --   -0.49968  -0.49591  -0.49430  -0.49005  -0.48835
 Alpha  occ. eigenvalues --   -0.48602  -0.48400  -0.48275  -0.47701  -0.47471
 Alpha  occ. eigenvalues --   -0.46688  -0.45654  -0.44704  -0.44415  -0.44041
 Alpha  occ. eigenvalues --   -0.40843  -0.40286  -0.39557  -0.37358  -0.37323
 Alpha  occ. eigenvalues --   -0.37292  -0.36991  -0.36884  -0.36065  -0.34465
 Alpha  occ. eigenvalues --   -0.34030  -0.33788  -0.33529  -0.33185  -0.33130
 Alpha  occ. eigenvalues --   -0.32685  -0.32451  -0.32241  -0.31871  -0.30632
 Alpha  occ. eigenvalues --   -0.30156  -0.29468  -0.25655  -0.25217
 Alpha virt. eigenvalues --    0.02678   0.04548   0.07299   0.08297   0.08607
 Alpha virt. eigenvalues --    0.09181   0.09700   0.10951   0.11345   0.11793
 Alpha virt. eigenvalues --    0.12701   0.14454   0.14625   0.14758   0.15049

 Mulliken charges:
               1
     1  N   -0.312444
     2  C    0.180823
     3  C    0.049169
     4  N   -0.258825
     5  C    0.134097
     6  H    0.025372
     7  N   -0.293675
     8  C    0.135238
     9  H    0.008812
    10  N   -0.292774
    11  C    0.243885
    12  C    0.116409
    13  N   -0.051687
    14  H    0.111831
    15  H    0.088220
    16  H    0.024963
    17  H    0.032519
    18  H    0.024995
    19  N   -0.311601
    20  C    0.250405
    21  C    0.180536
    22  N   -0.114183
    23  H    0.113027
    24  H    0.115550
    25  N   -0.308315
    26  C    0.238934
    27  N   -0.142546
    28  H    0.118140
    29  C    0.176504
    30  O   -0.321625
    31  C   -0.001781
    32  N   -0.226468
    33  C    0.132496
    34  H    0.024654
    35  H    0.030668
    36  H    0.028192
    37  H    0.024084
    38  H    0.062809
    39  H    0.058468
    40  H    0.071378
    41  H    0.029606
    42  C   -0.112982
    43  O   -0.267862
    44  C    0.150476
    45  H    0.134780
    46  N   -0.115173
    47  O   -0.344360
    48  C    0.342274
    49  H    0.049288
    50  C    0.170548
    51  C    0.040075
    52  N   -0.282849
    53  H    0.034279
    54  H    0.041380
    55  H    0.024574
    56  H    0.129380
    57  H    0.115144
    58  N   -0.058216
    59  C    0.079571
    60  C    0.245478
    61  N   -0.269907
    62  H    0.039213
    63  C    0.165022
    64  N   -0.301883
    65  H    0.034014
    66  C    0.136427
    67  N   -0.266919
    68  C    0.026753
    69  C    0.178143
    70  N   -0.312527
 Sum of Mulliken charges =  -0.00000

 Dipole moment (field-independent basis, Debye):
    X=              8.2781    Y=              6.1502    Z=              1.7735  Tot=             10.4641
 Quadrupole moment (field-independent basis, Debye-Ang):
   XX=           -151.8303   YY=           -218.9065   ZZ=           -252.5133
   XY=              0.8636   XZ=              4.3106   YZ=             -5.1094

 Normal termination of Gaussian 16 at Tue Jan 23 15:55:51 2018.
