 Gaussian 16, Revision A.03,
 Gaussian 16:  EM64L-G16RevA.03 25-Dec-2016

 ---------------------------------------
 #p wb97xd/cc-pvdz sp scf=(maxcycles=20)
 ---------------------------------------

 ------------------
 Base pair stacking
 ------------------
 Symbolic Z-matrix:
 Charge =  0 Multiplicity = 1

                         Standard orientation:
 ---------------------------------------------------------------------
 Center     Atomic      Atomic             Coordinates (Angstroms)
 Number     Number       Type             X           Y           Z
 ---------------------------------------------------------------------
      1          7           0        4.899621   -1.763753   -1.585832
      2          6           0        6.299535   -1.300537   -1.646518
      3          6           0        2.701947   -1.825616   -1.525079
      4          7           0        3.129041   -3.144347   -1.467892
      5          6           0        4.435969   -3.054291   -1.506784
      6          1           0        5.117124   -3.905342   -1.480494
      7          7           0        1.344294    0.101965   -1.589476
      8          6           0        2.478989    0.806000   -1.655693
      9          1           0        2.353353    1.886597   -1.708428
     10          7           0        3.739652    0.377612   -1.666493
     11          6           0        3.782003   -0.963260   -1.598078
     12          6           0        1.420559   -1.245125   -1.521623
     13          7           0        0.288989   -1.949641   -1.455473
     14          1           0        0.297913   -2.948888   -1.403894
     15          1           0       -0.605763   -1.502907   -1.455200
     16          1           0        6.744423   -1.684729   -2.455622
     17          1           0        6.319210   -0.302536   -1.698775
     18          1           0        6.787538   -1.599367   -0.826417
     19          7           0        4.609924    2.397495    0.995104
     20          6           0        3.256553    2.162049    1.026782
     21          6           0        5.244392    3.686782    0.654723
     22          7           0       -0.003308    3.293753    0.633957
     23          1           0       -0.927817    2.922062    0.713811
     24          1           0        0.077915    4.255339    0.370417
     25          7           0        2.286773    3.061719    0.754452
     26          6           0        1.079492    2.537447    0.869473
     27          7           0        0.838231    1.232210    1.223951
     28          1           0       -0.117801    0.917613    1.287271
     29          6           0        1.820639    0.288964    1.508625
     30          8           0        1.495969   -0.863864    1.818964
     31          6           0        3.122867    0.837453    1.389249
     32          7           0        4.367266    0.253079    1.581286
     33          6           0        5.216844    1.213665    1.336959
     34          1           0        6.301281    1.112350    1.391662
     35          1           0        5.831808    3.570154   -0.145376
     36          1           0        4.535780    4.361072    0.451069
     37          1           0        5.793054    4.004430    1.427311
     38          1           0       -5.055149   -0.194820    0.799618
     39          1           0       -5.058710   -0.000561    2.550868
     40          1           0       -3.950309    0.949978    1.561283
     41          1           0       -3.143637   -4.396364    2.155980
     42          6           0       -2.846851   -3.353813    2.040934
     43          8           0       -0.521214   -3.817912    2.097145
     44          6           0       -1.455332   -3.021624    2.006921
     45          1           0       -0.217264   -1.401709    1.829742
     46          7           0       -1.189389   -1.675376    1.858127
     47          8           0       -1.771318    0.506230    1.614938
     48          6           0       -2.104253   -0.658792    1.743494
     49          1           0       -4.833223   -2.584304    1.951531
     50          6           0       -3.762718   -2.384378    1.931530
     51          6           0       -4.439165   -0.007144    1.666463
     52          7           0       -3.425422   -1.058789    1.785176
     53          1           0       -5.429759    4.194313   -1.806840
     54          1           0       -4.127866    4.038266   -0.835849
     55          1           0       -5.630363    3.992349   -0.199857
     56          1           0       -3.259729   -2.898802   -1.596677
     57          1           0       -4.895590   -2.437467   -1.742357
     58          7           0       -3.943676   -2.169196   -1.590361
     59          6           0       -3.602547   -0.894839   -1.388335
     60          6           0       -4.019687    1.435425   -1.148370
     61          7           0       -2.733494    1.766434   -0.946945
     62          1           0       -0.897790    0.862248   -0.831879
     63          6           0       -1.960865    0.682752   -0.986574
     64          7           0       -2.300615   -0.594451   -1.188790
     65          1           0       -7.202058    1.893857   -1.486768
     66          6           0       -6.195957    1.479942   -1.413471
     67          7           0       -5.902447    0.208530   -1.536192
     68          6           0       -4.525707    0.166476   -1.370230
     69          6           0       -5.070315    3.743059   -0.990038
     70          7           0       -5.104358    2.279610   -1.177548
 ---------------------------------------------------------------------

 SCF Done:  E(RwB97XD) =  -2048.74495023     A.U. after   15 cycles

 The electronic state is 1-A.
 Alpha  occ. eigenvalues --  -19.25235 -19.21450 -19.20339 -14.52887 -14.51934
 Alpha  occ. eigenvalues --  -14.48968 -14.48607 -14.48333 -14.47278 -14.46466
 Alpha  occ. eigenvalues --  -14.46170 -14.45812 -14.44864 -14.44830 -14.42841
 Alpha  occ. eigenvalues --  -14.41814 -14.41047 -14.40810 -14.40785 -14.40381
 Alpha  occ. eigenvalues --  -10.44891 -10.40927 -10.40590 -10.39578 -10.38392
 Alpha  occ. eigenvalues --  -10.37943 -10.37662 -10.37419 -10.36477 -10.35623
 Alpha  occ. eigenvalues --  -10.34252 -10.34243 -10.34111 -10.33762 -10.33298
 Alpha  occ. eigenvalues --  -10.33122 -10.33030 -10.32908 -10.30805 -10.30719
 Alpha  occ. eigenvalues --  -10.30526 -10.28375 -10.27861  -1.18979  -1.15643
 Alpha  occ. eigenvalues --   -1.12919  -1.12480  -1.10974  -1.10364  -1.09900
 Alpha  occ. eigenvalues --   -1.08836  -1.08253  -1.05421  -1.05123  -1.01920
 Alpha  occ. eigenvalues --   -1.01423  -1.00594  -0.99339  -0.98304  -0.97459
 Alpha  occ. eigenvalues --   -0.96686  -0.96416  -0.92811  -0.90625  -0.88122
 Alpha  occ. eigenvalues --   -0.86335  -0.83939  -0.83656  -0.83031  -0.82330
 Alpha  occ. eigenvalues --   -0.82053  -0.78415  -0.77562  -0.75418  -0.74394
 Alpha  occ. eigenvalues --   -0.73298  -0.72891  -0.72832  -0.71030  -0.70895
 Alpha  occ. eigenvalues --   -0.67390  -0.67048  -0.66294  -0.66051  -0.64793
 Alpha  occ. eigenvalues --   -0.64140  -0.63488  -0.62746  -0.62463  -0.61462
 Alpha  occ. eigenvalues --   -0.61062  -0.60799  -0.60632  -0.59836  -0.59227
 Alpha  occ. eigenvalues --   -0.58967  -0.57952  -0.56859  -0.56415  -0.55838
 Alpha  occ. eigenvalues --   -0.55815  -0.55645  -0.55588  -0.54742  -0.54150
 Alpha  occ. eigenvalues --   -0.53843  -0.53618  -0.53296  -0.53181  -0.52745
 Alpha  occ. eigenvalues --   -0.52505  -0.51953  -0.51549  -0.50530  -0.50356
 Alpha  occ. eigenvalues --   -0.49961  -0.49885  -0.49749  -0.49019  -0.48882
 Alpha  occ. eigenvalues --   -0.48565  -0.48086  -0.48001  -0.47537  -0.47014
 Alpha  occ. eigenvalues --   -0.46814  -0.45702  -0.45046  -0.44297  -0.43339
 Alpha  occ. eigenvalues --   -0.41298  -0.41097  -0.38990  -0.38152  -0.38084
 Alpha  occ. eigenvalues --   -0.37494  -0.37100  -0.36631  -0.35422  -0.35220
 Alpha  occ. eigenvalues --   -0.34959  -0.34026  -0.33377  -0.33163  -0.32716
 Alpha  occ. eigenvalues --   -0.32411  -0.32163  -0.31682  -0.31621  -0.30623
 Alpha  occ. eigenvalues --   -0.30364  -0.30278  -0.26053  -0.25020
 Alpha virt. eigenvalues --    0.03116   0.03957   0.06111   0.08040   0.09180
 Alpha virt. eigenvalues --    0.09506   0.09904   0.10066   0.10907   0.11915
 Alpha virt. eigenvalues --    0.12977   0.14265   0.14527   0.14710   0.15112

 Mulliken charges:
               1
     1  N   -0.311707
     2  C    0.183056
     3  C    0.056652
     4  N   -0.262663
     5  C    0.142667
     6  H    0.026912
     7  N   -0.286421
     8  C    0.123853
     9  H    0.016027
    10  N   -0.277019
    11  C    0.258742
    12  C    0.090316
    13  N   -0.063440
    14  H    0.109934
    15  H    0.080327
    16  H    0.022386
    17  H    0.028492
    18  H    0.030182
    19  N   -0.301425
    20  C    0.242108
    21  C    0.181568
    22  N   -0.110431
    23  H    0.114341
    24  H    0.114866
    25  N   -0.301716
    26  C    0.225090
    27  N   -0.121649
    28  H    0.110914
    29  C    0.177013
    30  O   -0.322303
    31  C   -0.008177
    32  N   -0.226930
    33  C    0.121875
    34  H    0.018514
    35  H    0.027594
    36  H    0.028465
    37  H    0.023235
    38  H    0.065679
    39  H    0.055801
    40  H    0.077201
    41  H    0.027376
    42  C   -0.114529
    43  O   -0.263145
    44  C    0.177244
    45  H    0.131924
    46  N   -0.127067
    47  O   -0.340577
    48  C    0.346250
    49  H    0.043484
    50  C    0.165332
    51  C    0.035664
    52  N   -0.278804
    53  H    0.035371
    54  H    0.037286
    55  H    0.031345
    56  H    0.119600
    57  H    0.118672
    58  N   -0.061433
    59  C    0.092916
    60  C    0.243579
    61  N   -0.275237
    62  H    0.017946
    63  C    0.192993
    64  N   -0.311072
    65  H    0.039932
    66  C    0.134441
    67  N   -0.254536
    68  C    0.000909
    69  C    0.181723
    70  N   -0.307513
 Sum of Mulliken charges =  -0.00000

 Dipole moment (field-independent basis, Debye):
    X=             -8.1206    Y=              6.3797    Z=             -2.3053  Tot=             10.5811
 Quadrupole moment (field-independent basis, Debye-Ang):
   XX=           -159.5898   YY=           -220.3183   ZZ=           -254.8648
   XY=              3.6131   XZ=            -12.2456   YZ=             11.5282

 Normal termination of Gaussian 16 at Tue Jan 23 21:32:00 2018.
