 Gaussian 16, Revision A.03,
 Gaussian 16:  EM64L-G16RevA.03 25-Dec-2016

 ---------------------------------------
 #p wb97xd/cc-pvdz sp scf=(maxcycles=20)
 ---------------------------------------

 ------------------
 Base pair stacking
 ------------------
 Symbolic Z-matrix:
 Charge =  0 Multiplicity = 1

                         Standard orientation:
 ---------------------------------------------------------------------
 Center     Atomic      Atomic             Coordinates (Angstroms)
 Number     Number       Type             X           Y           Z
 ---------------------------------------------------------------------
      1          7           0        5.536620   -1.792683   -1.224654
      2          6           0        6.931526   -1.323607   -1.335076
      3          6           0        3.339115   -1.883290   -1.214804
      4          7           0        3.781530   -3.157374   -0.889683
      5          6           0        5.087736   -3.051794   -0.908634
      6          1           0        5.778877   -3.868396   -0.697833
      7          7           0        1.958901   -0.031143   -1.691800
      8          6           0        3.085749    0.667994   -1.862054
      9          1           0        2.947631    1.715135   -2.127908
     10          7           0        4.351666    0.269704   -1.753712
     11          6           0        4.409495   -1.031227   -1.424092
     12          6           0        2.050723   -1.337642   -1.360579
     13          7           0        0.927009   -2.037213   -1.190194
     14          1           0        0.947461   -3.007010   -0.944618
     15          1           0        0.026896   -1.616026   -1.302158
     16          1           0        7.406515   -1.849267   -2.040942
     17          1           0        6.939702   -0.354627   -1.580283
     18          1           0        7.397538   -1.447961   -0.459077
     19          7           0        3.952489    2.610986    1.308598
     20          6           0        2.603123    2.352444    1.287961
     21          6           0        4.574075    3.924762    1.047191
     22          7           0       -0.662942    3.448174    0.847629
     23          1           0       -1.582750    3.058272    0.882017
     24          1           0       -0.590808    4.422132    0.631010
     25          7           0        1.626242    3.247933    1.027510
     26          6           0        0.425465    2.699416    1.081352
     27          7           0        0.196718    1.375438    1.368153
     28          1           0       -0.755093    1.042800    1.387667
     29          6           0        1.186616    0.436056    1.639312
     30          8           0        0.873159   -0.735012    1.886463
     31          6           0        2.481989    1.010501    1.585144
     32          7           0        3.730176    0.438088    1.788273
     33          6           0        4.569651    1.422590    1.614334
     34          1           0        5.653593    1.336421    1.697548
     35          1           0        5.187074    3.854823    0.260975
     36          1           0        3.860108    4.596184    0.852999
     37          1           0        5.093737    4.215136    1.849955
     38          1           0       -5.655339   -0.125664    0.698513
     39          1           0       -5.714630   -0.012769    2.455896
     40          1           0       -4.594055    1.000390    1.545289
     41          1           0       -3.711601   -4.353997    1.919051
     42          6           0       -3.429895   -3.302566    1.861005
     43          8           0       -1.099166   -3.731041    1.967163
     44          6           0       -2.044037   -2.946663    1.884897
     45          1           0       -0.829912   -1.300450    1.820091
     46          7           0       -1.797480   -1.590836    1.806105
     47          8           0       -2.410169    0.589976    1.645328
     48          6           0       -2.726257   -0.584998    1.710158
     49          1           0       -5.425935   -2.562009    1.746090
     50          6           0       -4.358998   -2.344053    1.768079
     51          6           0       -5.068932    0.031629    1.591506
     52          7           0       -4.040836   -1.007825    1.692968
     53          1           0       -4.858288    3.811432   -2.892968
     54          1           0       -3.585449    3.871907   -1.873989
     55          1           0       -5.106360    3.921995   -1.283733
     56          1           0       -2.602769   -3.062945   -1.243388
     57          1           0       -4.239199   -2.669882   -1.522118
     58          7           0       -3.296109   -2.359158   -1.398631
     59          6           0       -2.978266   -1.063591   -1.439362
     60          6           0       -3.433325    1.260511   -1.670022
     61          7           0       -2.158525    1.648731   -1.500910
     62          1           0       -0.315578    0.819201   -1.160253
     63          6           0       -1.370834    0.592905   -1.306817
     64          7           0       -1.687273   -0.705464   -1.265677
     65          1           0       -6.609312    1.583868   -2.180587
     66          6           0       -5.600640    1.211292   -1.999776
     67          7           0       -5.286731   -0.053901   -1.864034
     68          6           0       -3.915414   -0.036740   -1.654426
     69          6           0       -4.518655    3.534515   -1.994104
     70          7           0       -4.527555    2.062154   -1.893665
 ---------------------------------------------------------------------

 SCF Done:  E(RwB97XD) =  -2048.75155720     A.U. after   15 cycles

 The electronic state is 1-A.
 Alpha  occ. eigenvalues --  -19.25650 -19.21919 -19.20472 -14.52584 -14.52265
 Alpha  occ. eigenvalues --  -14.48613 -14.48399 -14.48361 -14.47629 -14.46736
 Alpha  occ. eigenvalues --  -14.46328 -14.45633 -14.44367 -14.44361 -14.42179
 Alpha  occ. eigenvalues --  -14.41837 -14.40979 -14.40723 -14.40710 -14.40086
 Alpha  occ. eigenvalues --  -10.45261 -10.41023 -10.40066 -10.40010 -10.38143
 Alpha  occ. eigenvalues --  -10.38069 -10.37703 -10.37291 -10.35790 -10.35240
 Alpha  occ. eigenvalues --  -10.34674 -10.34150 -10.34069 -10.33687 -10.33189
 Alpha  occ. eigenvalues --  -10.33007 -10.32873 -10.32772 -10.31015 -10.30773
 Alpha  occ. eigenvalues --  -10.30703 -10.28181 -10.27921  -1.19241  -1.15308
 Alpha  occ. eigenvalues --   -1.13029  -1.12916  -1.10937  -1.10419  -1.09393
 Alpha  occ. eigenvalues --   -1.09130  -1.08359  -1.04935  -1.04794  -1.02284
 Alpha  occ. eigenvalues --   -1.01124  -1.00239  -0.99473  -0.98379  -0.96959
 Alpha  occ. eigenvalues --   -0.96574  -0.96428  -0.92489  -0.90919  -0.87728
 Alpha  occ. eigenvalues --   -0.86039  -0.83930  -0.83606  -0.83310  -0.82340
 Alpha  occ. eigenvalues --   -0.82022  -0.78730  -0.77137  -0.74945  -0.74432
 Alpha  occ. eigenvalues --   -0.73436  -0.73155  -0.72654  -0.70803  -0.70522
 Alpha  occ. eigenvalues --   -0.67166  -0.66936  -0.66341  -0.66056  -0.64386
 Alpha  occ. eigenvalues --   -0.64293  -0.63603  -0.62528  -0.62489  -0.61535
 Alpha  occ. eigenvalues --   -0.60672  -0.60380  -0.60328  -0.59482  -0.59357
 Alpha  occ. eigenvalues --   -0.59161  -0.58096  -0.56575  -0.56333  -0.55996
 Alpha  occ. eigenvalues --   -0.55805  -0.55495  -0.55231  -0.54371  -0.54061
 Alpha  occ. eigenvalues --   -0.53894  -0.53494  -0.53480  -0.53171  -0.52849
 Alpha  occ. eigenvalues --   -0.52768  -0.52153  -0.51515  -0.50449  -0.50082
 Alpha  occ. eigenvalues --   -0.50007  -0.49818  -0.49315  -0.49088  -0.48688
 Alpha  occ. eigenvalues --   -0.48647  -0.48297  -0.48136  -0.47467  -0.47202
 Alpha  occ. eigenvalues --   -0.46673  -0.45686  -0.45149  -0.44471  -0.43653
 Alpha  occ. eigenvalues --   -0.40910  -0.40805  -0.39264  -0.37745  -0.37692
 Alpha  occ. eigenvalues --   -0.37143  -0.37111  -0.36822  -0.35849  -0.34809
 Alpha  occ. eigenvalues --   -0.34490  -0.33706  -0.33235  -0.33135  -0.33043
 Alpha  occ. eigenvalues --   -0.32546  -0.32314  -0.32103  -0.31750  -0.30639
 Alpha  occ. eigenvalues --   -0.30256  -0.29892  -0.25631  -0.25082
 Alpha virt. eigenvalues --    0.02993   0.03983   0.06925   0.08137   0.08680
 Alpha virt. eigenvalues --    0.09428   0.09956   0.10306   0.11296   0.11999
 Alpha virt. eigenvalues --    0.12524   0.14284   0.14532   0.14860   0.15201

 Mulliken charges:
               1
     1  N   -0.313199
     2  C    0.181376
     3  C    0.055182
     4  N   -0.259855
     5  C    0.138367
     6  H    0.025807
     7  N   -0.295896
     8  C    0.134963
     9  H    0.010243
    10  N   -0.289140
    11  C    0.255880
    12  C    0.105827
    13  N   -0.055305
    14  H    0.111403
    15  H    0.082613
    16  H    0.024092
    17  H    0.030604
    18  H    0.026610
    19  N   -0.307082
    20  C    0.247822
    21  C    0.180600
    22  N   -0.107897
    23  H    0.112120
    24  H    0.114452
    25  N   -0.308479
    26  C    0.231038
    27  N   -0.146800
    28  H    0.123369
    29  C    0.186891
    30  O   -0.323055
    31  C   -0.012870
    32  N   -0.225120
    33  C    0.132032
    34  H    0.019503
    35  H    0.029951
    36  H    0.028089
    37  H    0.023373
    38  H    0.062315
    39  H    0.058665
    40  H    0.070889
    41  H    0.027636
    42  C   -0.113764
    43  O   -0.265524
    44  C    0.165117
    45  H    0.131610
    46  N   -0.118243
    47  O   -0.339628
    48  C    0.333167
    49  H    0.045930
    50  C    0.165103
    51  C    0.036095
    52  N   -0.279184
    53  H    0.035283
    54  H    0.038790
    55  H    0.028495
    56  H    0.124840
    57  H    0.115624
    58  N   -0.055061
    59  C    0.083358
    60  C    0.254258
    61  N   -0.275900
    62  H    0.043261
    63  C    0.160291
    64  N   -0.303476
    65  H    0.037835
    66  C    0.137054
    67  N   -0.265210
    68  C    0.023940
    69  C    0.179799
    70  N   -0.310876
 Sum of Mulliken charges =  -0.00000

 Dipole moment (field-independent basis, Debye):
    X=             -8.1717    Y=              6.2889    Z=             -2.0593  Tot=             10.5151
 Quadrupole moment (field-independent basis, Debye-Ang):
   XX=           -155.1454   YY=           -218.8923   ZZ=           -254.3944
   XY=              0.4513   XZ=             -3.6483   YZ=              7.4759

 Normal termination of Gaussian 16 at Tue Jan 23 13:25:07 2018.
