 Gaussian 16, Revision A.03,
 Gaussian 16:  EM64L-G16RevA.03 25-Dec-2016

 ---------------------------------------
 #p wb97xd/cc-pvdz sp scf=(maxcycles=20)
 ---------------------------------------

 ------------------
 Base pair stacking
 ------------------
 Symbolic Z-matrix:
 Charge =  0 Multiplicity = 1

                         Standard orientation:
 ---------------------------------------------------------------------
 Center     Atomic      Atomic             Coordinates (Angstroms)
 Number     Number       Type             X           Y           Z
 ---------------------------------------------------------------------
      1          7           0       -6.104883   -1.607372    0.840413
      2          6           0       -7.489082   -1.101894    0.759807
      3          6           0       -3.918401   -1.738717    1.038812
      4          7           0       -4.370272   -3.037687    0.856510
      5          6           0       -5.669461   -2.906564    0.744285
      6          1           0       -6.364776   -3.731977    0.588800
      7          7           0       -2.527858    0.136694    1.373697
      8          6           0       -3.643157    0.873435    1.343859
      9          1           0       -3.496212    1.944967    1.472294
     10          7           0       -4.906797    0.487093    1.179940
     11          6           0       -4.976115   -0.846135    1.031161
     12          6           0       -2.631065   -1.201642    1.221082
     13          7           0       -1.518878   -1.938762    1.250581
     14          1           0       -1.547999   -2.933019    1.141812
     15          1           0       -0.619134   -1.522533    1.382320
     16          1           0       -8.038573   -1.513491    1.487018
     17          1           0       -7.488455   -0.107968    0.865770
     18          1           0       -7.882096   -1.340495   -0.128226
     19          7           0       -3.343079    2.550768   -1.526441
     20          6           0       -2.004377    2.272922   -1.389635
     21          6           0       -3.969539    3.867937   -1.295499
     22          7           0        1.221817    3.314012   -0.634919
     23          1           0        2.136102    2.911936   -0.594236
     24          1           0        1.142385    4.284579   -0.405986
     25          7           0       -1.044063    3.149449   -1.024192
     26          6           0        0.149833    2.585228   -0.980813
     27          7           0        0.387256    1.263875   -1.272609
     28          1           0        1.332775    0.918311   -1.213079
     29          6           0       -0.585594    0.343858   -1.650775
     30          8           0       -0.265506   -0.826580   -1.892359
     31          6           0       -1.873395    0.935318   -1.701832
     32          7           0       -3.105086    0.384500   -2.028064
     33          6           0       -3.944671    1.377223   -1.910513
     34          1           0       -5.017645    1.307910   -2.092706
     35          1           0       -4.651836    3.791643   -0.569248
     36          1           0       -3.267826    4.525426   -1.024248
     37          1           0       -4.410983    4.180855   -2.135751
     38          1           0        6.136046   -0.331900   -0.109328
     39          1           0        6.355166   -0.186356   -1.851584
     40          1           0        5.169477    0.824915   -1.025231
     41          1           0        4.258635   -4.508426   -1.585322
     42          6           0        3.985785   -3.454435   -1.531592
     43          8           0        1.669080   -3.847985   -1.855828
     44          6           0        2.612226   -3.078682   -1.672946
     45          1           0        1.417530   -1.417080   -1.684394
     46          7           0        2.376246   -1.721274   -1.589225
     47          8           0        2.998678    0.447244   -1.329797
     48          6           0        3.304850   -0.730611   -1.389687
     49          1           0        5.972248   -2.744358   -1.222440
     50          6           0        4.914409   -2.511032   -1.335989
     51          6           0        5.634640   -0.149371   -1.048126
     52          7           0        4.607212   -1.172146   -1.262782
     53          1           0        4.276346    3.985054    2.628801
     54          1           0        3.097736    3.923923    1.502197
     55          1           0        4.664357    3.862035    1.048378
     56          1           0        1.960298   -3.011137    1.760076
     57          1           0        3.578197   -2.612627    2.125709
     58          7           0        2.659092   -2.305286    1.876707
     59          6           0        2.378812   -1.011409    1.707905
     60          6           0        2.883561    1.313204    1.651723
     61          7           0        1.640401    1.696861    1.317402
     62          1           0       -0.191247    0.861364    0.933192
     63          6           0        0.840174    0.638791    1.203170
     64          7           0        1.118994   -0.657892    1.371830
     65          1           0        6.012704    1.647339    2.392677
     66          6           0        5.012219    1.271457    2.176587
     67          7           0        4.672407    0.005763    2.191246
     68          6           0        3.325211    0.018193    1.860154
     69          6           0        4.006463    3.589897    1.750735
     70          7           0        3.978749    2.118240    1.857811
 ---------------------------------------------------------------------

 SCF Done:  E(RwB97XD) =  -2048.73063551     A.U. after   15 cycles

 The electronic state is 1-A.
 Alpha  occ. eigenvalues --  -19.25773 -19.21890 -19.20466 -14.52406 -14.52313
 Alpha  occ. eigenvalues --  -14.48769 -14.48491 -14.48012 -14.47733 -14.46582
 Alpha  occ. eigenvalues --  -14.45881 -14.45373 -14.43968 -14.43497 -14.42436
 Alpha  occ. eigenvalues --  -14.41796 -14.41413 -14.41023 -14.40543 -14.40296
 Alpha  occ. eigenvalues --  -10.45373 -10.40735 -10.40008 -10.39671 -10.37976
 Alpha  occ. eigenvalues --  -10.37865 -10.37710 -10.36938 -10.35520 -10.35432
 Alpha  occ. eigenvalues --  -10.34847 -10.34315 -10.34087 -10.34045 -10.33367
 Alpha  occ. eigenvalues --  -10.33175 -10.33051 -10.32309 -10.31039 -10.31027
 Alpha  occ. eigenvalues --  -10.30651 -10.28544 -10.27810  -1.19361  -1.15064
 Alpha  occ. eigenvalues --   -1.13037  -1.12914  -1.11344  -1.10362  -1.09202
 Alpha  occ. eigenvalues --   -1.09039  -1.08268  -1.05081  -1.04582  -1.02360
 Alpha  occ. eigenvalues --   -1.00927  -1.00551  -0.99372  -0.98346  -0.97024
 Alpha  occ. eigenvalues --   -0.96536  -0.96321  -0.92760  -0.90937  -0.87528
 Alpha  occ. eigenvalues --   -0.86015  -0.83971  -0.83818  -0.83400  -0.82364
 Alpha  occ. eigenvalues --   -0.82244  -0.78758  -0.76869  -0.74738  -0.74343
 Alpha  occ. eigenvalues --   -0.73385  -0.73212  -0.72978  -0.71137  -0.70311
 Alpha  occ. eigenvalues --   -0.67087  -0.66700  -0.66409  -0.66369  -0.64297
 Alpha  occ. eigenvalues --   -0.64201  -0.63561  -0.62812  -0.62634  -0.61406
 Alpha  occ. eigenvalues --   -0.60617  -0.60429  -0.60258  -0.59434  -0.59354
 Alpha  occ. eigenvalues --   -0.59180  -0.58049  -0.56885  -0.56506  -0.56306
 Alpha  occ. eigenvalues --   -0.55882  -0.55588  -0.55374  -0.54804  -0.54247
 Alpha  occ. eigenvalues --   -0.54020  -0.53444  -0.53200  -0.52992  -0.52719
 Alpha  occ. eigenvalues --   -0.52477  -0.52203  -0.51827  -0.50834  -0.50271
 Alpha  occ. eigenvalues --   -0.49962  -0.49548  -0.49316  -0.48926  -0.48762
 Alpha  occ. eigenvalues --   -0.48619  -0.48244  -0.48041  -0.47512  -0.47211
 Alpha  occ. eigenvalues --   -0.46952  -0.45642  -0.44929  -0.44379  -0.43768
 Alpha  occ. eigenvalues --   -0.41183  -0.40859  -0.39366  -0.37781  -0.37628
 Alpha  occ. eigenvalues --   -0.37258  -0.37059  -0.36740  -0.35918  -0.34651
 Alpha  occ. eigenvalues --   -0.34195  -0.33667  -0.33521  -0.33056  -0.32482
 Alpha  occ. eigenvalues --   -0.32341  -0.32158  -0.31871  -0.31648  -0.30935
 Alpha  occ. eigenvalues --   -0.30502  -0.29541  -0.25941  -0.24770
 Alpha virt. eigenvalues --    0.03165   0.04203   0.07203   0.07883   0.08632
 Alpha virt. eigenvalues --    0.09517   0.09935   0.10580   0.11026   0.11570
 Alpha virt. eigenvalues --    0.12720   0.14051   0.14253   0.14751   0.15058

 Mulliken charges:
               1
     1  N   -0.313214
     2  C    0.180952
     3  C    0.049431
     4  N   -0.260891
     5  C    0.135482
     6  H    0.026627
     7  N   -0.286334
     8  C    0.137901
     9  H    0.009027
    10  N   -0.291096
    11  C    0.248831
    12  C    0.116177
    13  N   -0.056393
    14  H    0.108868
    15  H    0.085481
    16  H    0.025332
    17  H    0.031546
    18  H    0.026845
    19  N   -0.302608
    20  C    0.238599
    21  C    0.179497
    22  N   -0.074465
    23  H    0.110096
    24  H    0.111845
    25  N   -0.300677
    26  C    0.204741
    27  N   -0.139021
    28  H    0.124524
    29  C    0.161447
    30  O   -0.321415
    31  C    0.011032
    32  N   -0.224531
    33  C    0.128595
    34  H    0.020758
    35  H    0.030649
    36  H    0.027027
    37  H    0.023608
    38  H    0.062877
    39  H    0.057969
    40  H    0.068627
    41  H    0.029844
    42  C   -0.112708
    43  O   -0.265148
    44  C    0.171715
    45  H    0.132930
    46  N   -0.125315
    47  O   -0.342273
    48  C    0.343736
    49  H    0.047434
    50  C    0.169358
    51  C    0.039437
    52  N   -0.286134
    53  H    0.037995
    54  H    0.028678
    55  H    0.028677
    56  H    0.124481
    57  H    0.116483
    58  N   -0.063247
    59  C    0.087132
    60  C    0.252897
    61  N   -0.286709
    62  H    0.038009
    63  C    0.168335
    64  N   -0.299498
    65  H    0.034442
    66  C    0.131296
    67  N   -0.262479
    68  C    0.021541
    69  C    0.177220
    70  N   -0.311871
 Sum of Mulliken charges =  -0.00000

 Dipole moment (field-independent basis, Debye):
    X=              7.7894    Y=              5.9304    Z=              2.9720  Tot=             10.2312
 Quadrupole moment (field-independent basis, Debye-Ang):
   XX=           -151.5925   YY=           -220.6090   ZZ=           -255.5434
   XY=              1.8775   XZ=              3.0071   YZ=            -10.2114

 Normal termination of Gaussian 16 at Tue Jan 23 15:32:41 2018.
