 Gaussian 16, Revision A.03,
 Gaussian 16:  EM64L-G16RevA.03 25-Dec-2016

 ---------------------------------------
 #p wb97xd/cc-pvdz sp scf=(maxcycles=20)
 ---------------------------------------

 ------------------
 Base pair stacking
 ------------------
 Symbolic Z-matrix:
 Charge =  0 Multiplicity = 1

                         Standard orientation:
 ---------------------------------------------------------------------
 Center     Atomic      Atomic             Coordinates (Angstroms)
 Number     Number       Type             X           Y           Z
 ---------------------------------------------------------------------
      1          7           0        4.287267   -1.796845   -1.842007
      2          6           0        5.687051   -1.350452   -1.981034
      3          6           0        2.096380   -1.832047   -1.651960
      4          7           0        2.508943   -3.156484   -1.632470
      5          6           0        3.812356   -3.082265   -1.747748
      6          1           0        4.482770   -3.941917   -1.769762
      7          7           0        0.762437    0.112790   -1.617890
      8          6           0        1.900301    0.803319   -1.744507
      9          1           0        1.785815    1.885871   -1.779603
     10          7           0        3.152463    0.359460   -1.833863
     11          6           0        3.181359   -0.982467   -1.780624
     12          6           0        0.825085   -1.235767   -1.567286
     13          7           0       -0.309662   -1.926815   -1.440913
     14          1           0       -0.310683   -2.926557   -1.399310
     15          1           0       -1.196958   -1.469028   -1.383541
     16          1           0        6.078382   -1.731935   -2.818596
     17          1           0        5.716565   -0.352295   -2.025020
     18          1           0        6.218690   -1.663587   -1.194077
     19          7           0        5.191081    2.318166    0.694576
     20          6           0        3.838997    2.099221    0.804030
     21          6           0        5.821045    3.602865    0.329346
     22          7           0        0.576605    3.275206    0.615309
     23          1           0       -0.346329    2.914232    0.746229
     24          1           0        0.654615    4.238338    0.356445
     25          7           0        2.866598    3.013568    0.597977
     26          6           0        1.661504    2.503182    0.779289
     27          7           0        1.424656    1.197522    1.135183
     28          1           0        0.470024    0.894189    1.251989
     29          6           0        2.409817    0.239339    1.352407
     30          8           0        2.089093   -0.912462    1.670606
     31          6           0        3.709738    0.772796    1.161361
     32          7           0        4.955608    0.171112    1.273983
     33          6           0        5.801696    1.123499    0.988840
     34          1           0        6.886068    1.008196    0.978355
     35          1           0        6.358646    3.487043   -0.505149
     36          1           0        5.110461    4.287912    0.174283
     37          1           0        6.418425    3.905843    1.071073
     38          1           0       -4.501527   -0.151899    1.046819
     39          1           0       -4.399198    0.024673    2.796956
     40          1           0       -3.338886    0.971341    1.752487
     41          1           0       -2.568014   -4.390340    2.248363
     42          6           0       -2.265023   -3.350442    2.125728
     43          8           0        0.053654   -3.843911    2.039943
     44          6           0       -0.873737   -3.035212    2.012581
     45          1           0        0.372643   -1.429086    1.777660
     46          7           0       -0.599580   -1.690932    1.860926
     47          8           0       -1.166482    0.500069    1.673013
     48          6           0       -1.506341   -0.661975    1.810127
     49          1           0       -4.243048   -2.555478    2.161172
     50          6           0       -3.173093   -2.368656    2.079761
     51          6           0       -3.833078    0.019347    1.877430
     52          7           0       -2.827829   -1.045947    1.926130
     53          1           0       -5.958914    4.290874   -1.395903
     54          1           0       -4.604117    4.108871   -0.505115
     55          1           0       -6.066923    4.075184    0.218168
     56          1           0       -3.872553   -2.830388   -1.380858
     57          1           0       -5.508041   -2.347335   -1.425208
     58          7           0       -4.545402   -2.092455   -1.327281
     59          6           0       -4.176426   -0.824533   -1.133856
     60          6           0       -4.548385    1.508194   -0.847843
     61          7           0       -3.248356    1.821159   -0.719763
     62          1           0       -1.420953    0.893136   -0.721925
     63          6           0       -2.493542    0.728429   -0.815149
     64          7           0       -2.861196   -0.542358   -1.008861
     65          1           0       -7.738955    2.009469   -0.993115
     66          6           0       -6.735742    1.582380   -0.983330
     67          7           0       -6.466518    0.308739   -1.135095
     68          6           0       -5.083047    0.247915   -1.051258
     69          6           0       -5.557777    3.826957   -0.606050
     70          7           0       -5.621824    2.366020   -0.804921
 ---------------------------------------------------------------------

 SCF Done:  E(RwB97XD) =  -2048.74060375     A.U. after   15 cycles

 The electronic state is 1-A.
 Alpha  occ. eigenvalues --  -19.25075 -19.21101 -19.20496 -14.52801 -14.51471
 Alpha  occ. eigenvalues --  -14.49216 -14.48909 -14.48352 -14.46995 -14.46537
 Alpha  occ. eigenvalues --  -14.46531 -14.45711 -14.45193 -14.45040 -14.43250
 Alpha  occ. eigenvalues --  -14.41969 -14.41202 -14.41176 -14.41082 -14.40721
 Alpha  occ. eigenvalues --  -10.44590 -10.41073 -10.40785 -10.39237 -10.38267
 Alpha  occ. eigenvalues --  -10.38063 -10.37735 -10.37077 -10.36480 -10.35925
 Alpha  occ. eigenvalues --  -10.34279 -10.34117 -10.33793 -10.33630 -10.33594
 Alpha  occ. eigenvalues --  -10.33278 -10.33212 -10.33184 -10.31077 -10.30403
 Alpha  occ. eigenvalues --  -10.30171 -10.28593 -10.28067  -1.18654  -1.15620
 Alpha  occ. eigenvalues --   -1.13098  -1.12144  -1.11043  -1.10620  -1.10178
 Alpha  occ. eigenvalues --   -1.08507  -1.08364  -1.05633  -1.05431  -1.01604
 Alpha  occ. eigenvalues --   -1.01368  -1.00945  -0.99588  -0.98475  -0.97678
 Alpha  occ. eigenvalues --   -0.96737  -0.96660  -0.93131  -0.90266  -0.88224
 Alpha  occ. eigenvalues --   -0.86289  -0.84165  -0.83767  -0.82708  -0.82512
 Alpha  occ. eigenvalues --   -0.81967  -0.78076  -0.77648  -0.75499  -0.74589
 Alpha  occ. eigenvalues --   -0.73502  -0.73086  -0.72538  -0.71253  -0.71003
 Alpha  occ. eigenvalues --   -0.67463  -0.67280  -0.66473  -0.65771  -0.64831
 Alpha  occ. eigenvalues --   -0.64217  -0.63320  -0.62952  -0.62464  -0.61698
 Alpha  occ. eigenvalues --   -0.61162  -0.60839  -0.60508  -0.59991  -0.59025
 Alpha  occ. eigenvalues --   -0.58796  -0.58202  -0.57049  -0.56623  -0.56003
 Alpha  occ. eigenvalues --   -0.55708  -0.55676  -0.55543  -0.55089  -0.54143
 Alpha  occ. eigenvalues --   -0.53896  -0.53819  -0.53281  -0.53101  -0.52857
 Alpha  occ. eigenvalues --   -0.51765  -0.51600  -0.51504  -0.50516  -0.50478
 Alpha  occ. eigenvalues --   -0.50077  -0.49957  -0.49524  -0.48984  -0.48969
 Alpha  occ. eigenvalues --   -0.48700  -0.47932  -0.47880  -0.47466  -0.46981
 Alpha  occ. eigenvalues --   -0.46878  -0.45500  -0.45318  -0.44764  -0.43139
 Alpha  occ. eigenvalues --   -0.41457  -0.41183  -0.38920  -0.38277  -0.38158
 Alpha  occ. eigenvalues --   -0.37380  -0.37225  -0.37115  -0.35523  -0.35161
 Alpha  occ. eigenvalues --   -0.35102  -0.34243  -0.33643  -0.33368  -0.32879
 Alpha  occ. eigenvalues --   -0.32551  -0.32262  -0.31797  -0.30968  -0.30738
 Alpha  occ. eigenvalues --   -0.30583  -0.30423  -0.26385  -0.25114
 Alpha virt. eigenvalues --    0.03313   0.03943   0.06313   0.07812   0.08990
 Alpha virt. eigenvalues --    0.09249   0.09777   0.10074   0.10638   0.11788
 Alpha virt. eigenvalues --    0.13572   0.14260   0.14524   0.14579   0.14653

 Mulliken charges:
               1
     1  N   -0.308959
     2  C    0.183028
     3  C    0.068532
     4  N   -0.262068
     5  C    0.147620
     6  H    0.028832
     7  N   -0.285583
     8  C    0.118322
     9  H    0.017766
    10  N   -0.268532
    11  C    0.250370
    12  C    0.075619
    13  N   -0.068898
    14  H    0.111008
    15  H    0.082004
    16  H    0.020046
    17  H    0.029704
    18  H    0.034028
    19  N   -0.309684
    20  C    0.261904
    21  C    0.182355
    22  N   -0.110572
    23  H    0.124320
    24  H    0.116855
    25  N   -0.297804
    26  C    0.194425
    27  N   -0.111688
    28  H    0.117748
    29  C    0.156142
    30  O   -0.317937
    31  C    0.009668
    32  N   -0.233027
    33  C    0.116241
    34  H    0.021188
    35  H    0.025778
    36  H    0.029947
    37  H    0.024534
    38  H    0.067796
    39  H    0.053432
    40  H    0.079628
    41  H    0.026044
    42  C   -0.116994
    43  O   -0.262656
    44  C    0.175098
    45  H    0.135288
    46  N   -0.127876
    47  O   -0.347797
    48  C    0.350747
    49  H    0.041854
    50  C    0.165188
    51  C    0.038375
    52  N   -0.276638
    53  H    0.034667
    54  H    0.039107
    55  H    0.031628
    56  H    0.118859
    57  H    0.121273
    58  N   -0.064473
    59  C    0.064050
    60  C    0.227383
    61  N   -0.265228
    62  H    0.017342
    63  C    0.175167
    64  N   -0.303277
    65  H    0.040807
    66  C    0.139590
    67  N   -0.255980
    68  C    0.032989
    69  C    0.181057
    70  N   -0.309679
 Sum of Mulliken charges =  -0.00000

 Dipole moment (field-independent basis, Debye):
    X=             -8.0827    Y=              6.6893    Z=             -1.8623  Tot=             10.6557
 Quadrupole moment (field-independent basis, Debye-Ang):
   XX=           -164.8800   YY=           -220.1763   ZZ=           -252.7112
   XY=              6.9830   XZ=            -18.2806   YZ=             11.8412

 Normal termination of Gaussian 16 at Tue Jan 23 23:03:46 2018.
