 Gaussian 16, Revision A.03,
 Gaussian 16:  EM64L-G16RevA.03 25-Dec-2016

 ---------------------------------------
 #p wb97xd/cc-pvdz sp scf=(maxcycles=20)
 ---------------------------------------

 ------------------
 Base pair stacking
 ------------------
 Symbolic Z-matrix:
 Charge =  0 Multiplicity = 1

                         Standard orientation:
 ---------------------------------------------------------------------
 Center     Atomic      Atomic             Coordinates (Angstroms)
 Number     Number       Type             X           Y           Z
 ---------------------------------------------------------------------
      1          7           0       -6.858872   -1.464926    0.334047
      2          6           0       -8.215054   -0.950786    0.061215
      3          6           0       -4.702798   -1.606638    0.744593
      4          7           0       -5.175922   -2.910068    0.700342
      5          6           0       -6.455947   -2.772526    0.454778
      6          1           0       -7.159596   -3.598956    0.350773
      7          7           0       -3.290899    0.271941    0.945712
      8          6           0       -4.376784    1.017299    0.715790
      9          1           0       -4.209441    2.093514    0.710313
     10          7           0       -5.632455    0.634646    0.492675
     11          6           0       -5.728583   -0.704906    0.520603
     12          6           0       -3.420591   -1.072596    0.967506
     13          7           0       -2.337792   -1.818335    1.196858
     14          1           0       -2.387195   -2.817406    1.221876
     15          1           0       -1.440790   -1.404031    1.351395
     16          1           0       -8.837688   -1.248328    0.785071
     17          1           0       -8.193800    0.048091    0.030901
     18          1           0       -8.536501   -1.302491   -0.817976
     19          7           0       -2.505773    2.458663   -1.637751
     20          6           0       -1.186156    2.171890   -1.383911
     21          6           0       -3.147773    3.773171   -1.436249
     22          7           0        1.958735    3.181620   -0.310667
     23          1           0        2.864352    2.774671   -0.194584
     24          1           0        1.860766    4.147222   -0.068322
     25          7           0       -0.261732    3.035822   -0.911576
     26          6           0        0.921662    2.465461   -0.770572
     27          7           0        1.181932    1.149841   -1.068747
     28          1           0        2.117047    0.798842   -0.929746
     29          6           0        0.246102    0.242776   -1.555891
     30          8           0        0.584399   -0.923436   -1.793056
     31          6           0       -1.030013    0.840958   -1.712613
     32          7           0       -2.227504    0.302997   -2.163735
     33          6           0       -3.071999    1.296601   -2.102117
     34          1           0       -4.123648    1.236126   -2.384341
     35          1           0       -3.894597    3.683854   -0.778164
     36          1           0       -2.472636    4.421361   -1.086523
     37          1           0       -3.508746    4.106584   -2.306501
     38          1           0        6.794437   -0.496902    0.585443
     39          1           0        7.174332   -0.313791   -1.125345
     40          1           0        5.919628    0.684206   -0.389773
     41          1           0        5.051850   -4.631311   -1.151423
     42          6           0        4.777704   -3.577557   -1.099515
     43          8           0        2.500062   -3.953501   -1.645518
     44          6           0        3.424048   -3.192653   -1.358906
     45          1           0        2.239520   -1.525896   -1.443530
     46          7           0        3.184570   -1.836391   -1.266908
     47          8           0        3.785473    0.323055   -0.902338
     48          6           0        4.093064   -0.854536   -0.960073
     49          1           0        6.728682   -2.883372   -0.591974
     50          6           0        5.686476   -2.642872   -0.797657
     51          6           0        6.382582   -0.291397   -0.391396
     52          7           0        5.377017   -1.304569   -0.723138
     53          1           0        3.491121    4.134630    2.274655
     54          1           0        2.413434    3.939791    1.065218
     55          1           0        4.010964    3.787998    0.766998
     56          1           0        1.050276   -2.872105    2.158536
     57          1           0        2.641563   -2.455902    2.610940
     58          7           0        1.757174   -2.169488    2.240740
     59          6           0        1.531574   -0.906445    1.873321
     60          6           0        2.108838    1.378857    1.547826
     61          7           0        0.911456    1.734859    1.053899
     62          1           0       -0.904188    0.887175    0.623223
     63          6           0        0.092773    0.685595    1.012730
     64          7           0        0.316852   -0.580227    1.380254
     65          1           0        5.170474    1.756101    2.515420
     66          6           0        4.181697    1.371915    2.263113
     67          7           0        3.804055    0.126591    2.418770
     68          6           0        2.491663    0.117286    1.969038
     69          6           0        3.286732    3.627068    1.437634
     70          7           0        3.205672    2.184964    1.740545
 ---------------------------------------------------------------------

 SCF Done:  E(RwB97XD) =  -2048.56809015     A.U. after   15 cycles

 The electronic state is 1-A.
 Alpha  occ. eigenvalues --  -19.25922 -19.21946 -19.20382 -14.52453 -14.52359
 Alpha  occ. eigenvalues --  -14.49377 -14.48487 -14.47918 -14.47723 -14.45531
 Alpha  occ. eigenvalues --  -14.45186 -14.45057 -14.43827 -14.42948 -14.42790
 Alpha  occ. eigenvalues --  -14.42069 -14.41642 -14.41375 -14.40829 -14.40478
 Alpha  occ. eigenvalues --  -10.45538 -10.41477 -10.40078 -10.39434 -10.37901
 Alpha  occ. eigenvalues --  -10.37819 -10.37787 -10.36693 -10.36121 -10.35359
 Alpha  occ. eigenvalues --  -10.34909 -10.34719 -10.34144 -10.34042 -10.33838
 Alpha  occ. eigenvalues --  -10.33105 -10.32894 -10.32275 -10.31422 -10.31095
 Alpha  occ. eigenvalues --  -10.30695 -10.29229 -10.27774  -1.19501  -1.15739
 Alpha  occ. eigenvalues --   -1.13434  -1.12984  -1.11985  -1.10401  -1.09518
 Alpha  occ. eigenvalues --   -1.09337  -1.08697  -1.05675  -1.04226  -1.02678
 Alpha  occ. eigenvalues --   -1.02449  -1.01152  -0.99465  -0.98362  -0.97600
 Alpha  occ. eigenvalues --   -0.96731  -0.96229  -0.93339  -0.91055  -0.87902
 Alpha  occ. eigenvalues --   -0.86657  -0.84572  -0.83773  -0.83697  -0.82907
 Alpha  occ. eigenvalues --   -0.82375  -0.78888  -0.77156  -0.75238  -0.74538
 Alpha  occ. eigenvalues --   -0.73867  -0.73569  -0.73378  -0.71770  -0.70474
 Alpha  occ. eigenvalues --   -0.67964  -0.67242  -0.66977  -0.66530  -0.64830
 Alpha  occ. eigenvalues --   -0.64409  -0.63756  -0.63449  -0.63021  -0.62916
 Alpha  occ. eigenvalues --   -0.61040  -0.60891  -0.60457  -0.59894  -0.59511
 Alpha  occ. eigenvalues --   -0.59358  -0.58945  -0.57293  -0.56927  -0.56916
 Alpha  occ. eigenvalues --   -0.56308  -0.55719  -0.55682  -0.54554  -0.54396
 Alpha  occ. eigenvalues --   -0.53760  -0.53337  -0.53063  -0.52791  -0.52659
 Alpha  occ. eigenvalues --   -0.52399  -0.52290  -0.51635  -0.51358  -0.50781
 Alpha  occ. eigenvalues --   -0.50043  -0.49867  -0.49540  -0.49394  -0.48783
 Alpha  occ. eigenvalues --   -0.48579  -0.48243  -0.48095  -0.47952  -0.47552
 Alpha  occ. eigenvalues --   -0.47249  -0.46055  -0.45612  -0.43986  -0.42721
 Alpha  occ. eigenvalues --   -0.41876  -0.39585  -0.39347  -0.37877  -0.37707
 Alpha  occ. eigenvalues --   -0.37314  -0.36984  -0.36482  -0.35856  -0.35205
 Alpha  occ. eigenvalues --   -0.34222  -0.34070  -0.33385  -0.33108  -0.32490
 Alpha  occ. eigenvalues --   -0.32080  -0.31950  -0.31665  -0.31519  -0.31362
 Alpha  occ. eigenvalues --   -0.30925  -0.28146  -0.26488  -0.24791
 Alpha virt. eigenvalues --    0.03067   0.03468   0.07118   0.07192   0.08343
 Alpha virt. eigenvalues --    0.09071   0.09462   0.10264   0.11553   0.12493
 Alpha virt. eigenvalues --    0.12798   0.13725   0.13920   0.14189   0.15190

 Mulliken charges:
               1
     1  N   -0.312628
     2  C    0.180788
     3  C    0.036880
     4  N   -0.260214
     5  C    0.135376
     6  H    0.028705
     7  N   -0.284449
     8  C    0.124214
     9  H    0.009413
    10  N   -0.285879
    11  C    0.245551
    12  C    0.123118
    13  N   -0.057809
    14  H    0.107262
    15  H    0.087666
    16  H    0.026466
    17  H    0.034576
    18  H    0.027764
    19  N   -0.304545
    20  C    0.215043
    21  C    0.182536
    22  N   -0.081376
    23  H    0.109549
    24  H    0.094857
    25  N   -0.263822
    26  C    0.184394
    27  N   -0.108916
    28  H    0.121898
    29  C    0.124065
    30  O   -0.318167
    31  C    0.015571
    32  N   -0.218556
    33  C    0.120022
    34  H    0.028679
    35  H    0.021981
    36  H    0.027390
    37  H    0.024729
    38  H    0.061697
    39  H    0.059980
    40  H    0.070886
    41  H    0.031654
    42  C   -0.112743
    43  O   -0.264158
    44  C    0.179051
    45  H    0.135100
    46  N   -0.138277
    47  O   -0.348531
    48  C    0.362718
    49  H    0.047530
    50  C    0.172374
    51  C    0.041575
    52  N   -0.294433
    53  H    0.021031
    54  H    0.027846
    55  H    0.007465
    56  H    0.121918
    57  H    0.117355
    58  N   -0.068453
    59  C    0.116300
    60  C    0.233477
    61  N   -0.269081
    62  H    0.086902
    63  C    0.161081
    64  N   -0.298465
    65  H    0.032536
    66  C    0.137488
    67  N   -0.262856
    68  C    0.023557
    69  C    0.194928
    70  N   -0.329584
 Sum of Mulliken charges =  -0.00000

 Dipole moment (field-independent basis, Debye):
    X=              6.9658    Y=              5.1325    Z=              4.1747  Tot=              9.6069
 Quadrupole moment (field-independent basis, Debye-Ang):
   XX=           -146.2222   YY=           -224.7878   ZZ=           -255.2050
   XY=              4.7944   XZ=             11.4913   YZ=            -12.7002

 Normal termination of Gaussian 16 at Wed Jan 24 02:21:51 2018.
