 Gaussian 16, Revision A.03,
 Gaussian 16:  EM64L-G16RevA.03 25-Dec-2016

 ---------------------------------------
 #p wb97xd/cc-pvdz sp scf=(maxcycles=20)
 ---------------------------------------

 ------------------
 Base pair stacking
 ------------------
 Symbolic Z-matrix:
 Charge =  0 Multiplicity = 1

                         Standard orientation:
 ---------------------------------------------------------------------
 Center     Atomic      Atomic             Coordinates (Angstroms)
 Number     Number       Type             X           Y           Z
 ---------------------------------------------------------------------
      1          7           0        4.902832   -1.722931   -1.568728
      2          6           0        6.303531   -1.258254   -1.579809
      3          6           0        2.704477   -1.786225   -1.544957
      4          7           0        3.130578   -3.106402   -1.562308
      5          6           0        4.437948   -3.015425   -1.575928
      6          1           0        5.118568   -3.867156   -1.591614
      7          7           0        1.348078    0.143023   -1.511480
      8          6           0        2.483689    0.848674   -1.517316
      9          1           0        2.358941    1.930592   -1.505590
     10          7           0        3.744349    0.420501   -1.535392
     11          6           0        3.785577   -0.922087   -1.548683
     12          6           0        1.423229   -1.205766   -1.525203
     13          7           0        0.290740   -1.911897   -1.519398
     14          1           0        0.298818   -2.912424   -1.529059
     15          1           0       -0.603882   -1.465120   -1.505209
     16          1           0        6.760538   -1.592567   -2.404166
     17          1           0        6.324054   -0.258943   -1.570487
     18          1           0        6.779087   -1.607278   -0.772334
     19          7           0        4.609155    2.367060    0.984428
     20          6           0        3.256083    2.128418    1.001378
     21          6           0        5.245095    3.651484    0.628709
     22          7           0       -0.000755    3.243251    0.541069
     23          1           0       -0.925356    2.870525    0.614849
     24          1           0        0.081739    4.199924    0.260554
     25          7           0        2.287960    3.020027    0.698352
     26          6           0        1.080515    2.494607    0.806174
     27          7           0        0.837588    1.195626    1.181855
     28          1           0       -0.118432    0.879565    1.237572
     29          6           0        1.818264    0.260716    1.498212
     30          8           0        1.492184   -0.886966    1.825697
     31          6           0        3.120649    0.810537    1.386936
     32          7           0        4.363687    0.233425    1.607601
     33          6           0        5.214190    1.191631    1.357193
     34          1           0        6.298002    1.094435    1.429146
     35          1           0        5.844108    3.521415   -0.160643
     36          1           0        4.537710    4.319781    0.402305
     37          1           0        5.781902    3.985221    1.402831
     38          1           0       -5.045484   -0.255860    0.701192
     39          1           0       -5.074435   -0.028559    2.448231
     40          1           0       -3.954526    0.906258    1.456618
     41          1           0       -3.142673   -4.425596    2.163794
     42          6           0       -2.846954   -3.384573    2.033246
     43          8           0       -0.521176   -3.840931    2.131166
     44          6           0       -1.455949   -3.049137    2.012650
     45          1           0       -0.219644   -1.429359    1.822397
     46          7           0       -1.191375   -1.705194    1.842179
     47          8           0       -1.775380    0.469774    1.549515
     48          6           0       -2.107113   -0.693557    1.695380
     49          1           0       -4.833823   -2.622520    1.901172
     50          6           0       -3.763662   -2.419970    1.892551
     51          6           0       -4.442367   -0.050094    1.572956
     52          7           0       -3.427709   -1.096439    1.725915
     53          1           0       -5.421652    4.247711   -1.579453
     54          1           0       -4.134558    4.031137   -0.600380
     55          1           0       -5.646479    3.947817    0.008922
     56          1           0       -3.255504   -2.847095   -1.771925
     57          1           0       -4.888957   -2.376076   -1.913653
     58          7           0       -3.939419   -2.118575   -1.731184
     59          6           0       -3.601297   -0.859327   -1.446298
     60          6           0       -4.021854    1.452259   -1.070230
     61          7           0       -2.738826    1.769020   -0.829552
     62          1           0       -0.905121    0.857657   -0.742522
     63          6           0       -1.965748    0.689040   -0.923910
     64          7           0       -2.302500   -0.573026   -1.209139
     65          1           0       -7.198725    1.933717   -1.427725
     66          6           0       -6.193869    1.515096   -1.364816
     67          7           0       -5.898626    0.253310   -1.560826
     68          6           0       -4.524549    0.199787   -1.377058
     69          6           0       -5.074596    3.746886   -0.786543
     70          7           0       -5.105901    2.297715   -1.063917
 ---------------------------------------------------------------------

 SCF Done:  E(RwB97XD) =  -2048.73467543     A.U. after   15 cycles

 The electronic state is 1-A.
 Alpha  occ. eigenvalues --  -19.25203 -19.21413 -19.20330 -14.52938 -14.51928
 Alpha  occ. eigenvalues --  -14.49031 -14.48561 -14.48364 -14.47279 -14.46400
 Alpha  occ. eigenvalues --  -14.46078 -14.45843 -14.44894 -14.44854 -14.42922
 Alpha  occ. eigenvalues --  -14.41776 -14.41102 -14.40771 -14.40731 -14.40361
 Alpha  occ. eigenvalues --  -10.44862 -10.40876 -10.40642 -10.39545 -10.38425
 Alpha  occ. eigenvalues --  -10.37911 -10.37700 -10.37378 -10.36601 -10.35661
 Alpha  occ. eigenvalues --  -10.34293 -10.34139 -10.34041 -10.33807 -10.33279
 Alpha  occ. eigenvalues --  -10.33142 -10.33015 -10.32786 -10.30775 -10.30701
 Alpha  occ. eigenvalues --  -10.30551 -10.28404 -10.27811  -1.19032  -1.15698
 Alpha  occ. eigenvalues --   -1.12911  -1.12461  -1.11007  -1.10329  -1.09958
 Alpha  occ. eigenvalues --   -1.08843  -1.08230  -1.05488  -1.05163  -1.01912
 Alpha  occ. eigenvalues --   -1.01471  -1.00644  -0.99292  -0.98294  -0.97527
 Alpha  occ. eigenvalues --   -0.96731  -0.96387  -0.92844  -0.90611  -0.88195
 Alpha  occ. eigenvalues --   -0.86393  -0.83940  -0.83666  -0.83019  -0.82306
 Alpha  occ. eigenvalues --   -0.82084  -0.78403  -0.77624  -0.75521  -0.74370
 Alpha  occ. eigenvalues --   -0.73264  -0.72943  -0.72830  -0.71081  -0.70956
 Alpha  occ. eigenvalues --   -0.67471  -0.67008  -0.66349  -0.66045  -0.64869
 Alpha  occ. eigenvalues --   -0.64135  -0.63508  -0.62798  -0.62509  -0.61422
 Alpha  occ. eigenvalues --   -0.61128  -0.60874  -0.60706  -0.59921  -0.59250
 Alpha  occ. eigenvalues --   -0.58940  -0.57902  -0.57029  -0.56396  -0.55930
 Alpha  occ. eigenvalues --   -0.55812  -0.55705  -0.55648  -0.54834  -0.54195
 Alpha  occ. eigenvalues --   -0.53820  -0.53701  -0.53271  -0.53225  -0.52755
 Alpha  occ. eigenvalues --   -0.52430  -0.51936  -0.51583  -0.50620  -0.50411
 Alpha  occ. eigenvalues --   -0.49934  -0.49846  -0.49780  -0.49018  -0.48930
 Alpha  occ. eigenvalues --   -0.48540  -0.48076  -0.47990  -0.47535  -0.47006
 Alpha  occ. eigenvalues --   -0.46906  -0.45601  -0.44887  -0.44203  -0.43304
 Alpha  occ. eigenvalues --   -0.41404  -0.41088  -0.39018  -0.38233  -0.38116
 Alpha  occ. eigenvalues --   -0.37677  -0.37100  -0.36475  -0.35429  -0.35208
 Alpha  occ. eigenvalues --   -0.35029  -0.34178  -0.33385  -0.33098  -0.32698
 Alpha  occ. eigenvalues --   -0.32387  -0.32045  -0.31663  -0.31540  -0.30610
 Alpha  occ. eigenvalues --   -0.30298  -0.30245  -0.26172  -0.24873
 Alpha virt. eigenvalues --    0.03132   0.03915   0.06041   0.07995   0.09159
 Alpha virt. eigenvalues --    0.09488   0.09874   0.10080   0.10841   0.11977
 Alpha virt. eigenvalues --    0.12988   0.14197   0.14525   0.14670   0.15196

 Mulliken charges:
               1
     1  N   -0.312084
     2  C    0.183301
     3  C    0.056489
     4  N   -0.263624
     5  C    0.142106
     6  H    0.026817
     7  N   -0.283317
     8  C    0.118193
     9  H    0.020518
    10  N   -0.275162
    11  C    0.259869
    12  C    0.088671
    13  N   -0.063944
    14  H    0.108731
    15  H    0.079790
    16  H    0.022367
    17  H    0.027986
    18  H    0.030473
    19  N   -0.297602
    20  C    0.233536
    21  C    0.181751
    22  N   -0.106341
    23  H    0.112434
    24  H    0.114305
    25  N   -0.297124
    26  C    0.215275
    27  N   -0.113327
    28  H    0.111256
    29  C    0.171453
    30  O   -0.321750
    31  C   -0.003480
    32  N   -0.225433
    33  C    0.120317
    34  H    0.018142
    35  H    0.027070
    36  H    0.028276
    37  H    0.023128
    38  H    0.066326
    39  H    0.054202
    40  H    0.078483
    41  H    0.027889
    42  C   -0.113446
    43  O   -0.262794
    44  C    0.178659
    45  H    0.132020
    46  N   -0.127390
    47  O   -0.339847
    48  C    0.345969
    49  H    0.043858
    50  C    0.165204
    51  C    0.037345
    52  N   -0.278737
    53  H    0.035556
    54  H    0.036997
    55  H    0.031769
    56  H    0.119587
    57  H    0.119250
    58  N   -0.062208
    59  C    0.092356
    60  C    0.237025
    61  N   -0.275471
    62  H    0.011719
    63  C    0.200647
    64  N   -0.309552
    65  H    0.039952
    66  C    0.133564
    67  N   -0.252658
    68  C   -0.000679
    69  C    0.181795
    70  N   -0.306458
 Sum of Mulliken charges =  -0.00000

 Dipole moment (field-independent basis, Debye):
    X=             -8.1030    Y=              6.3187    Z=             -2.5607  Tot=             10.5897
 Quadrupole moment (field-independent basis, Debye-Ang):
   XX=           -159.6491   YY=           -221.1215   ZZ=           -255.2904
   XY=              3.9956   XZ=            -12.4617   YZ=             12.6308

 Normal termination of Gaussian 16 at Wed Jan 24 01:47:26 2018.
