 Gaussian 16, Revision A.03,
 Gaussian 16:  EM64L-G16RevA.03 25-Dec-2016

 ---------------------------------------
 #p wb97xd/cc-pvdz sp scf=(maxcycles=20)
 ---------------------------------------

 ------------------
 Base pair stacking
 ------------------
 Symbolic Z-matrix:
 Charge =  0 Multiplicity = 1

                         Standard orientation:
 ---------------------------------------------------------------------
 Center     Atomic      Atomic             Coordinates (Angstroms)
 Number     Number       Type             X           Y           Z
 ---------------------------------------------------------------------
      1          7           0        4.896915   -1.912653   -1.607328
      2          6           0        6.290495   -1.475671   -1.819490
      3          6           0        2.704468   -1.952766   -1.437494
      4          7           0        3.140006   -3.236860   -1.144002
      5          6           0        4.443447   -3.161297   -1.258072
      6          1           0        5.129180   -3.993664   -1.097211
      7          7           0        1.336061   -0.069154   -1.814860
      8          6           0        2.463280    0.604022   -2.067447
      9          1           0        2.330231    1.654201   -2.323716
     10          7           0        3.724242    0.176707   -2.051066
     11          6           0        3.776048   -1.125395   -1.725071
     12          6           0        1.421745   -1.377591   -1.489738
     13          7           0        0.297645   -2.051260   -1.237251
     14          1           0        0.313657   -3.021406   -0.992729
     15          1           0       -0.598326   -1.609449   -1.283889
     16          1           0        6.700658   -2.011707   -2.557460
     17          1           0        6.303027   -0.506994   -2.065726
     18          1           0        6.816046   -1.611180   -0.979585
     19          7           0        4.602386    2.512598    0.999227
     20          6           0        3.249529    2.285123    1.077127
     21          6           0        5.233278    3.811887    0.691813
     22          7           0       -0.013925    3.455822    0.874404
     23          1           0       -0.937486    3.087125    0.976071
     24          1           0        0.064583    4.427986    0.652020
     25          7           0        2.277077    3.202950    0.887452
     26          6           0        1.071146    2.682132    1.029144
     27          7           0        0.833544    1.363592    1.333313
     28          1           0       -0.121691    1.052896    1.422408
     29          6           0        1.818748    0.401579    1.532769
     30          8           0        1.497310   -0.762114    1.803385
     31          6           0        3.119570    0.946146    1.383840
     32          7           0        4.365769    0.345114    1.496241
     33          6           0        5.212730    1.310172    1.260573
     34          1           0        6.297590    1.199085    1.264785
     35          1           0        5.785676    3.728320   -0.136847
     36          1           0        4.522667    4.499637    0.549338
     37          1           0        5.816513    4.089815    1.454306
     38          1           0       -5.084628   -0.002339    1.092977
     39          1           0       -5.013257    0.110924    2.849886
     40          1           0       -3.938971    1.098584    1.859017
     41          1           0       -3.154753   -4.274864    2.173567
     42          6           0       -2.853956   -3.230152    2.093999
     43          8           0       -0.532143   -3.712108    2.030751
     44          6           0       -1.462244   -2.906182    2.016581
     45          1           0       -0.218590   -1.288255    1.861754
     46          7           0       -1.191032   -1.556341    1.918540
     47          8           0       -1.763590    0.638065    1.800332
     48          6           0       -2.100990   -0.529378    1.889306
     49          1           0       -4.835547   -2.443884    2.123809
     50          6           0       -3.765119   -2.250502    2.067856
     51          6           0       -4.431321    0.140956    1.940753
     52          7           0       -3.422693   -0.921901    1.968298
     53          1           0       -5.460500    3.929654   -2.521067
     54          1           0       -4.115831    3.960307   -1.597479
     55          1           0       -5.588198    4.044995   -0.898170
     56          1           0       -3.249240   -2.995627   -1.032297
     57          1           0       -4.892173   -2.564926   -1.191647
     58          7           0       -3.935716   -2.276013   -1.137463
     59          6           0       -3.592035   -0.988065   -1.202665
     60          6           0       -4.009215    1.345999   -1.402200
     61          7           0       -2.716926    1.704748   -1.326738
     62          1           0       -0.873595    0.832922   -1.120165
     63          6           0       -1.941638    0.630993   -1.189296
     64          7           0       -2.283949   -0.659779   -1.123786
     65          1           0       -7.205689    1.742500   -1.680661
     66          6           0       -6.195338    1.346752   -1.573311
     67          7           0       -5.901507    0.074612   -1.459357
     68          6           0       -4.518544    0.060149   -1.350111
     69          6           0       -5.062787    3.644509   -1.648991
     70          7           0       -5.098146    2.172689   -1.546522
 ---------------------------------------------------------------------

 SCF Done:  E(RwB97XD) =  -2048.75109637     A.U. after   15 cycles

 The electronic state is 1-A.
 Alpha  occ. eigenvalues --  -19.25460 -19.21681 -19.20476 -14.52670 -14.52104
 Alpha  occ. eigenvalues --  -14.48804 -14.48716 -14.48128 -14.47407 -14.46729
 Alpha  occ. eigenvalues --  -14.46495 -14.45660 -14.44704 -14.44626 -14.42446
 Alpha  occ. eigenvalues --  -14.41958 -14.40987 -14.40772 -14.40664 -14.40212
 Alpha  occ. eigenvalues --  -10.45095 -10.41140 -10.40369 -10.39800 -10.38228
 Alpha  occ. eigenvalues --  -10.38123 -10.37658 -10.37478 -10.36148 -10.35347
 Alpha  occ. eigenvalues --  -10.34586 -10.34333 -10.34039 -10.33514 -10.33434
 Alpha  occ. eigenvalues --  -10.32943 -10.32915 -10.32850 -10.30953 -10.30863
 Alpha  occ. eigenvalues --  -10.30396 -10.28134 -10.28082  -1.19060  -1.15433
 Alpha  occ. eigenvalues --   -1.13090  -1.12688  -1.10756  -1.10555  -1.09701
 Alpha  occ. eigenvalues --   -1.08974  -1.08444  -1.05198  -1.04870  -1.02077
 Alpha  occ. eigenvalues --   -1.01226  -1.00313  -0.99594  -0.98473  -0.97231
 Alpha  occ. eigenvalues --   -0.96595  -0.96442  -0.92567  -0.90808  -0.87889
 Alpha  occ. eigenvalues --   -0.86117  -0.84104  -0.83462  -0.83196  -0.82497
 Alpha  occ. eigenvalues --   -0.81858  -0.78589  -0.77345  -0.75149  -0.74576
 Alpha  occ. eigenvalues --   -0.73519  -0.72990  -0.72631  -0.70804  -0.70667
 Alpha  occ. eigenvalues --   -0.67289  -0.67142  -0.66213  -0.66030  -0.64555
 Alpha  occ. eigenvalues --   -0.64297  -0.63612  -0.62557  -0.62477  -0.61679
 Alpha  occ. eigenvalues --   -0.60850  -0.60536  -0.60356  -0.59573  -0.59294
 Alpha  occ. eigenvalues --   -0.59114  -0.58216  -0.56673  -0.56329  -0.55738
 Alpha  occ. eigenvalues --   -0.55722  -0.55558  -0.55307  -0.54521  -0.54078
 Alpha  occ. eigenvalues --   -0.53889  -0.53525  -0.53467  -0.53038  -0.52920
 Alpha  occ. eigenvalues --   -0.52791  -0.52063  -0.51354  -0.50325  -0.50235
 Alpha  occ. eigenvalues --   -0.50061  -0.49796  -0.49525  -0.49167  -0.48731
 Alpha  occ. eigenvalues --   -0.48630  -0.48255  -0.48124  -0.47685  -0.47159
 Alpha  occ. eigenvalues --   -0.46593  -0.45727  -0.45340  -0.44389  -0.43446
 Alpha  occ. eigenvalues --   -0.41004  -0.40909  -0.39114  -0.37900  -0.37896
 Alpha  occ. eigenvalues --   -0.37297  -0.37232  -0.36725  -0.35591  -0.35074
 Alpha  occ. eigenvalues --   -0.34688  -0.33916  -0.33215  -0.33137  -0.32824
 Alpha  occ. eigenvalues --   -0.32589  -0.32438  -0.31955  -0.31826  -0.30509
 Alpha  occ. eigenvalues --   -0.30237  -0.30132  -0.25684  -0.25340
 Alpha virt. eigenvalues --    0.02941   0.04102   0.06369   0.08285   0.09091
 Alpha virt. eigenvalues --    0.09318   0.09819   0.10248   0.11198   0.11712
 Alpha virt. eigenvalues --    0.13103   0.14493   0.14529   0.14821   0.14904

 Mulliken charges:
               1
     1  N   -0.311545
     2  C    0.182532
     3  C    0.055310
     4  N   -0.259391
     5  C    0.143165
     6  H    0.026384
     7  N   -0.294840
     8  C    0.130658
     9  H    0.011325
    10  N   -0.283557
    11  C    0.257762
    12  C    0.095171
    13  N   -0.063348
    14  H    0.113439
    15  H    0.082193
    16  H    0.022257
    17  H    0.029646
    18  H    0.028686
    19  N   -0.308353
    20  C    0.254839
    21  C    0.181131
    22  N   -0.119378
    23  H    0.117211
    24  H    0.116611
    25  N   -0.311068
    26  C    0.244094
    27  N   -0.139885
    28  H    0.114930
    29  C    0.189308
    30  O   -0.322244
    31  C   -0.014519
    32  N   -0.228489
    33  C    0.125647
    34  H    0.020088
    35  H    0.028515
    36  H    0.029179
    37  H    0.023960
    38  H    0.064615
    39  H    0.058624
    40  H    0.074801
    41  H    0.026279
    42  C   -0.119770
    43  O   -0.264422
    44  C    0.173066
    45  H    0.131721
    46  N   -0.125001
    47  O   -0.344532
    48  C    0.347034
    49  H    0.042926
    50  C    0.167742
    51  C    0.034340
    52  N   -0.278151
    53  H    0.034792
    54  H    0.039511
    55  H    0.029848
    56  H    0.120002
    57  H    0.116484
    58  N   -0.059271
    59  C    0.093464
    60  C    0.253086
    61  N   -0.274781
    62  H    0.030526
    63  C    0.178372
    64  N   -0.313495
    65  H    0.039463
    66  C    0.136349
    67  N   -0.260796
    68  C    0.008776
    69  C    0.181030
    70  N   -0.310057
 Sum of Mulliken charges =  -0.00000

 Dipole moment (field-independent basis, Debye):
    X=             -8.1555    Y=              6.6326    Z=             -1.4095  Tot=             10.6061
 Quadrupole moment (field-independent basis, Debye-Ang):
   XX=           -159.6833   YY=           -218.4874   ZZ=           -253.2472
   XY=              2.7954   XZ=            -11.4808   YZ=              7.5546

 Normal termination of Gaussian 16 at Tue Jan 23 14:10:58 2018.
