 Gaussian 16, Revision A.03,
 Gaussian 16:  EM64L-G16RevA.03 25-Dec-2016

 ---------------------------------------
 #p wb97xd/cc-pvdz sp scf=(maxcycles=20)
 ---------------------------------------

 ------------------
 Base pair stacking
 ------------------
 Symbolic Z-matrix:
 Charge =  0 Multiplicity = 1

                         Standard orientation:
 ---------------------------------------------------------------------
 Center     Atomic      Atomic             Coordinates (Angstroms)
 Number     Number       Type             X           Y           Z
 ---------------------------------------------------------------------
      1          7           0        4.896636   -1.858084   -1.606753
      2          6           0        6.292973   -1.408446   -1.768233
      3          6           0        2.701921   -1.908501   -1.472575
      4          7           0        3.133726   -3.209688   -1.259979
      5          6           0        4.438683   -3.127224   -1.349326
      6          1           0        5.122378   -3.968888   -1.234844
      7          7           0        1.338285   -0.003056   -1.742248
      8          6           0        2.468777    0.685078   -1.932055
      9          1           0        2.339006    1.750228   -2.118825
     10          7           0        3.729589    0.257029   -1.925842
     11          6           0        3.777218   -1.064133   -1.687731
     12          6           0        1.419821   -1.330504   -1.504911
     13          7           0        0.292451   -2.019136   -1.315189
     14          1           0        0.305333   -3.003568   -1.136474
     15          1           0       -0.602970   -1.574757   -1.345197
     16          1           0        6.714329   -1.893659   -2.534533
     17          1           0        6.308661   -0.425366   -1.948324
     18          1           0        6.806067   -1.600583   -0.931686
     19          7           0        4.606338    2.470157    1.004497
     20          6           0        3.253099    2.240078    1.066566
     21          6           0        5.238189    3.767088    0.689190
     22          7           0       -0.010140    3.399367    0.803669
     23          1           0       -0.934096    3.029540    0.897265
     24          1           0        0.069027    4.368808    0.569931
     25          7           0        2.281089    3.152811    0.851677
     26          6           0        1.074602    2.630625    0.983344
     27          7           0        0.836104    1.315460    1.301093
     28          1           0       -0.119512    1.003377    1.380937
     29          6           0        1.820834    0.358711    1.526509
     30          8           0        1.498573   -0.802269    1.807560
     31          6           0        3.122243    0.904807    1.388623
     32          7           0        4.368258    0.308590    1.525971
     33          6           0        5.215997    1.272808    1.289684
     34          1           0        6.300965    1.164684    1.310340
     35          1           0        5.802241    3.674389   -0.130608
     36          1           0        4.527913    4.451056    0.528070
     37          1           0        5.810091    4.056310    1.456059
     38          1           0       -5.074737   -0.069247    0.996393
     39          1           0       -5.028040    0.066693    2.752528
     40          1           0       -3.942581    1.044448    1.764026
     41          1           0       -3.149402   -4.322412    2.158383
     42          6           0       -2.850143   -3.277997    2.069577
     43          8           0       -0.526473   -3.754521    2.044666
     44          6           0       -1.458287   -2.951338    2.007279
     45          1           0       -0.216654   -1.332209    1.848921
     46          7           0       -1.189113   -1.602141    1.895679
     47          8           0       -1.765450    0.589029    1.741392
     48          6           0       -2.101147   -0.578071    1.840664
     49          1           0       -4.833910   -2.496719    2.061842
     50          6           0       -3.763289   -2.301214    2.018237
     51          6           0       -4.433623    0.086638    1.851232
     52          7           0       -3.422831   -0.973073    1.906381
     53          1           0       -5.449127    4.037553   -2.277780
     54          1           0       -4.118320    4.005171   -1.334371
     55          1           0       -5.600955    4.043174   -0.652868
     56          1           0       -3.256599   -2.973471   -1.227087
     57          1           0       -4.897200   -2.532206   -1.381382
     58          7           0       -3.941806   -2.248065   -1.293628
     59          6           0       -3.597866   -0.958823   -1.266662
     60          6           0       -4.013263    1.383587   -1.314396
     61          7           0       -2.722414    1.735806   -1.195723
     62          1           0       -0.881903    0.851136   -1.021123
     63          6           0       -1.948700    0.654850   -1.119573
     64          7           0       -2.291266   -0.637237   -1.146406
     65          1           0       -7.205456    1.799520   -1.612883
     66          6           0       -6.196604    1.396936   -1.517499
     67          7           0       -5.903831    0.119861   -1.485306
     68          6           0       -4.522633    0.097407   -1.356774
     69          6           0       -5.064256    3.694019   -1.421121
     70          7           0       -5.100365    2.218656   -1.418743
 ---------------------------------------------------------------------

 SCF Done:  E(RwB97XD) =  -2048.75131756     A.U. after   15 cycles

 The electronic state is 1-A.
 Alpha  occ. eigenvalues --  -19.25373 -19.21586 -19.20420 -14.52747 -14.52025
 Alpha  occ. eigenvalues --  -14.48806 -14.48735 -14.48208 -14.47346 -14.46638
 Alpha  occ. eigenvalues --  -14.46385 -14.45715 -14.44762 -14.44705 -14.42597
 Alpha  occ. eigenvalues --  -14.41902 -14.40924 -14.40875 -14.40735 -14.40296
 Alpha  occ. eigenvalues --  -10.45012 -10.41063 -10.40448 -10.39708 -10.38288
 Alpha  occ. eigenvalues --  -10.38057 -10.37561 -10.37546 -10.36250 -10.35458
 Alpha  occ. eigenvalues --  -10.34475 -10.34260 -10.34112 -10.33609 -10.33383
 Alpha  occ. eigenvalues --  -10.33000 -10.32986 -10.32910 -10.30900 -10.30805
 Alpha  occ. eigenvalues --  -10.30446 -10.28231 -10.28005  -1.19004  -1.15506
 Alpha  occ. eigenvalues --   -1.13020  -1.12598  -1.10841  -1.10485  -1.09766
 Alpha  occ. eigenvalues --   -1.08908  -1.08370  -1.05273  -1.04969  -1.02006
 Alpha  occ. eigenvalues --   -1.01295  -1.00423  -0.99500  -0.98405  -0.97307
 Alpha  occ. eigenvalues --   -0.96535  -0.96528  -0.92665  -0.90727  -0.87966
 Alpha  occ. eigenvalues --   -0.86193  -0.84037  -0.83542  -0.83124  -0.82434
 Alpha  occ. eigenvalues --   -0.81934  -0.78511  -0.77418  -0.75233  -0.74506
 Alpha  occ. eigenvalues --   -0.73436  -0.72918  -0.72729  -0.70887  -0.70748
 Alpha  occ. eigenvalues --   -0.67251  -0.67171  -0.66146  -0.66124  -0.64633
 Alpha  occ. eigenvalues --   -0.64231  -0.63549  -0.62582  -0.62499  -0.61599
 Alpha  occ. eigenvalues --   -0.60920  -0.60622  -0.60450  -0.59663  -0.59250
 Alpha  occ. eigenvalues --   -0.59059  -0.58119  -0.56678  -0.56393  -0.55769
 Alpha  occ. eigenvalues --   -0.55693  -0.55634  -0.55412  -0.54585  -0.54054
 Alpha  occ. eigenvalues --   -0.53916  -0.53520  -0.53404  -0.53091  -0.52843
 Alpha  occ. eigenvalues --   -0.52693  -0.52005  -0.51429  -0.50365  -0.50306
 Alpha  occ. eigenvalues --   -0.50015  -0.49865  -0.49602  -0.49100  -0.48726
 Alpha  occ. eigenvalues --   -0.48666  -0.48181  -0.48065  -0.47622  -0.47098
 Alpha  occ. eigenvalues --   -0.46669  -0.45729  -0.45265  -0.44384  -0.43412
 Alpha  occ. eigenvalues --   -0.41097  -0.40995  -0.39050  -0.37982  -0.37968
 Alpha  occ. eigenvalues --   -0.37300  -0.37174  -0.36756  -0.35517  -0.35135
 Alpha  occ. eigenvalues --   -0.34781  -0.33896  -0.33285  -0.33179  -0.32791
 Alpha  occ. eigenvalues --   -0.32518  -0.32353  -0.31833  -0.31768  -0.30570
 Alpha  occ. eigenvalues --   -0.30312  -0.30208  -0.25805  -0.25250
 Alpha virt. eigenvalues --    0.03026   0.04050   0.06277   0.08191   0.09140
 Alpha virt. eigenvalues --    0.09402   0.09865   0.10174   0.11086   0.11782
 Alpha virt. eigenvalues --    0.13033   0.14418   0.14540   0.14782   0.14966

 Mulliken charges:
               1
     1  N   -0.311524
     2  C    0.182686
     3  C    0.055841
     4  N   -0.260541
     5  C    0.143153
     6  H    0.026656
     7  N   -0.292373
     8  C    0.128929
     9  H    0.012409
    10  N   -0.281380
    11  C    0.257937
    12  C    0.093894
    13  N   -0.063262
    14  H    0.112326
    15  H    0.081551
    16  H    0.022308
    17  H    0.029317
    18  H    0.029249
    19  N   -0.306598
    20  C    0.252663
    21  C    0.181263
    22  N   -0.116973
    23  H    0.116520
    24  H    0.116055
    25  N   -0.309112
    26  C    0.239729
    27  N   -0.135121
    28  H    0.113019
    29  C    0.186255
    30  O   -0.322468
    31  C   -0.013508
    32  N   -0.228312
    33  C    0.124487
    34  H    0.019518
    35  H    0.028313
    36  H    0.028946
    37  H    0.023689
    38  H    0.064943
    39  H    0.058032
    40  H    0.075388
    41  H    0.026559
    42  C   -0.117425
    43  O   -0.263955
    44  C    0.174386
    45  H    0.131767
    46  N   -0.125839
    47  O   -0.343069
    48  C    0.346812
    49  H    0.042998
    50  C    0.166518
    51  C    0.034077
    52  N   -0.278348
    53  H    0.034990
    54  H    0.038644
    55  H    0.030342
    56  H    0.119760
    57  H    0.117278
    58  N   -0.059942
    59  C    0.093133
    60  C    0.251424
    61  N   -0.274814
    62  H    0.027562
    63  C    0.181397
    64  N   -0.312728
    65  H    0.039662
    66  C    0.135779
    67  N   -0.258631
    68  C    0.005838
    69  C    0.181281
    70  N   -0.309364
 Sum of Mulliken charges =  -0.00000

 Dipole moment (field-independent basis, Debye):
    X=             -8.1438    Y=              6.5401    Z=             -1.7117  Tot=             10.5841
 Quadrupole moment (field-independent basis, Debye-Ang):
   XX=           -159.6367   YY=           -218.9787   ZZ=           -253.8498
   XY=              3.0476   XZ=            -11.7485   YZ=              8.9750

 Normal termination of Gaussian 16 at Wed Jan 24 06:02:18 2018.
