 Gaussian 16, Revision A.03,
 Gaussian 16:  EM64L-G16RevA.03 25-Dec-2016

 ---------------------------------------
 #p wb97xd/cc-pvdz sp scf=(maxcycles=20)
 ---------------------------------------

 ------------------
 Base pair stacking
 ------------------
 Symbolic Z-matrix:
 Charge =  0 Multiplicity = 1

                         Standard orientation:
 ---------------------------------------------------------------------
 Center     Atomic      Atomic             Coordinates (Angstroms)
 Number     Number       Type             X           Y           Z
 ---------------------------------------------------------------------
      1          7           0       -6.626286   -1.501580    0.481788
      2          6           0       -7.993720   -0.984596    0.279694
      3          6           0       -4.458432   -1.647743    0.822896
      4          7           0       -4.922057   -2.950355    0.708940
      5          6           0       -6.209555   -2.810162    0.507998
      6          1           0       -6.909149   -3.635249    0.371103
      7          7           0       -3.056672    0.228155    1.104045
      8          6           0       -4.154599    0.975841    0.951997
      9          1           0       -3.996186    2.051832    1.010329
     10          7           0       -5.412912    0.595723    0.739712
     11          6           0       -5.497375   -0.743789    0.685064
     12          6           0       -3.174823   -1.116278    1.043869
     13          7           0       -2.080006   -1.864326    1.195416
     14          1           0       -2.120602   -2.863419    1.158228
     15          1           0       -1.182389   -1.451808    1.351194
     16          1           0       -8.593312   -1.333502    1.000065
     17          1           0       -7.981403    0.014356    0.312367
     18          1           0       -8.336925   -1.283066   -0.610879
     19          7           0       -2.760330    2.505994   -1.635430
     20          6           0       -1.434499    2.218956   -1.416730
     21          6           0       -3.392314    3.825625   -1.435754
     22          7           0        1.744015    3.235262   -0.454478
     23          1           0        2.651571    2.827239   -0.359124
     24          1           0        1.656068    4.204902   -0.224731
     25          7           0       -0.493887    3.087237   -0.986144
     26          6           0        0.691605    2.515305   -0.871600
     27          7           0        0.939127    1.194282   -1.156442
     28          1           0        1.877004    0.842462   -1.039959
     29          6           0       -0.013450    0.282675   -1.600789
     30          8           0        0.314295   -0.888252   -1.829363
     31          6           0       -1.292020    0.882479   -1.728705
     32          7           0       -2.504021    0.341357   -2.135086
     33          6           0       -3.343494    1.338573   -2.064029
     34          1           0       -4.403316    1.277086   -2.313602
     35          1           0       -4.119282    3.749199   -0.754226
     36          1           0       -2.705166    4.477056   -1.116803
     37          1           0       -3.778310    4.146381   -2.300003
     38          1           0        6.594130   -0.444418    0.354788
     39          1           0        6.923004   -0.289685   -1.369320
     40          1           0        5.693741    0.723947   -0.612462
     41          1           0        4.788616   -4.600102   -1.262916
     42          6           0        4.519099   -3.544776   -1.219615
     43          8           0        2.225049   -3.921861   -1.691030
     44          6           0        3.159348   -3.159587   -1.444413
     45          1           0        1.977475   -1.490517   -1.520057
     46          7           0        2.926533   -1.801265   -1.366922
     47          8           0        3.544150    0.361710   -1.054992
     48          6           0        3.846576   -0.817652   -1.103152
     49          1           0        6.486370   -2.849018   -0.781926
     50          6           0        5.439131   -2.608400   -0.960081
     51          6           0        6.153706   -0.253068   -0.612411
     52          7           0        5.135798   -1.268078   -0.897660
     53          1           0        3.728588    4.065616    2.488373
     54          1           0        2.618907    3.937141    1.299170
     55          1           0        4.208587    3.820299    0.947973
     56          1           0        1.342195   -2.943420    1.994380
     57          1           0        2.942163   -2.541033    2.428292
     58          7           0        2.045429   -2.240478    2.101568
     59          6           0        1.799361   -0.958990    1.821550
     60          6           0        2.348731    1.347902    1.626205
     61          7           0        1.135085    1.722652    1.189106
     62          1           0       -0.685038    0.886073    0.755640
     63          6           0        0.324084    0.670078    1.103901
     64          7           0        0.568651   -0.614204    1.383898
     65          1           0        5.433232    1.693284    2.531048
     66          6           0        4.440887    1.316120    2.282180
     67          7           0        4.077862    0.059774    2.368702
     68          6           0        2.753452    0.066025    1.955646
     69          6           0        3.504829    3.610091    1.626737
     70          7           0        3.444001    2.150966    1.839471
 ---------------------------------------------------------------------

 SCF Done:  E(RwB97XD) =  -2048.67372194     A.U. after   15 cycles

 The electronic state is 1-A.
 Alpha  occ. eigenvalues --  -19.25909 -19.21958 -19.20629 -14.52412 -14.52149
 Alpha  occ. eigenvalues --  -14.49140 -14.48693 -14.47907 -14.47474 -14.46425
 Alpha  occ. eigenvalues --  -14.45751 -14.45033 -14.43492 -14.42671 -14.42272
 Alpha  occ. eigenvalues --  -14.42131 -14.41812 -14.41372 -14.40666 -14.40534
 Alpha  occ. eigenvalues --  -10.45511 -10.41089 -10.40087 -10.39159 -10.38153
 Alpha  occ. eigenvalues --  -10.37775 -10.37606 -10.36497 -10.35841 -10.35199
 Alpha  occ. eigenvalues --  -10.34932 -10.34469 -10.34321 -10.34038 -10.33774
 Alpha  occ. eigenvalues --  -10.33553 -10.33102 -10.31885 -10.31271 -10.31087
 Alpha  occ. eigenvalues --  -10.30799 -10.28944 -10.28065  -1.19482  -1.14912
 Alpha  occ. eigenvalues --   -1.13396  -1.12992  -1.11733  -1.10558  -1.09307
 Alpha  occ. eigenvalues --   -1.09042  -1.08308  -1.05392  -1.04073  -1.02505
 Alpha  occ. eigenvalues --   -1.00985  -1.00872  -0.99685  -0.98587  -0.97355
 Alpha  occ. eigenvalues --   -0.96567  -0.96082  -0.93055  -0.91028  -0.87317
 Alpha  occ. eigenvalues --   -0.85960  -0.84329  -0.84046  -0.83616  -0.82684
 Alpha  occ. eigenvalues --   -0.82470  -0.78862  -0.76649  -0.74857  -0.74373
 Alpha  occ. eigenvalues --   -0.73647  -0.73365  -0.73308  -0.71494  -0.70083
 Alpha  occ. eigenvalues --   -0.67486  -0.66721  -0.66630  -0.66387  -0.64450
 Alpha  occ. eigenvalues --   -0.64006  -0.63752  -0.63138  -0.62883  -0.62157
 Alpha  occ. eigenvalues --   -0.60675  -0.60393  -0.60136  -0.59503  -0.59490
 Alpha  occ. eigenvalues --   -0.59152  -0.57978  -0.57466  -0.56822  -0.56712
 Alpha  occ. eigenvalues --   -0.55996  -0.55987  -0.55692  -0.54851  -0.54318
 Alpha  occ. eigenvalues --   -0.53911  -0.53543  -0.53115  -0.52919  -0.52671
 Alpha  occ. eigenvalues --   -0.52392  -0.52134  -0.52056  -0.51159  -0.50569
 Alpha  occ. eigenvalues --   -0.50093  -0.49610  -0.49409  -0.49090  -0.48722
 Alpha  occ. eigenvalues --   -0.48535  -0.48458  -0.48225  -0.48041  -0.47396
 Alpha  occ. eigenvalues --   -0.47319  -0.46100  -0.45364  -0.43925  -0.43045
 Alpha  occ. eigenvalues --   -0.41604  -0.40177  -0.39494  -0.37654  -0.37601
 Alpha  occ. eigenvalues --   -0.37298  -0.37254  -0.36475  -0.35886  -0.34530
 Alpha  occ. eigenvalues --   -0.34173  -0.33864  -0.33773  -0.33146  -0.32646
 Alpha  occ. eigenvalues --   -0.32377  -0.31931  -0.31799  -0.31259  -0.31228
 Alpha  occ. eigenvalues --   -0.30665  -0.28398  -0.26227  -0.25336
 Alpha virt. eigenvalues --    0.03098   0.04342   0.07421   0.07548   0.08848
 Alpha virt. eigenvalues --    0.09030   0.09318   0.10574   0.11415   0.11963
 Alpha virt. eigenvalues --    0.12884   0.13836   0.14126   0.14632   0.14724

 Mulliken charges:
               1
     1  N   -0.312450
     2  C    0.180790
     3  C    0.039951
     4  N   -0.260219
     5  C    0.134888
     6  H    0.027784
     7  N   -0.285527
     8  C    0.128603
     9  H    0.009326
    10  N   -0.289376
    11  C    0.244620
    12  C    0.121713
    13  N   -0.056083
    14  H    0.107626
    15  H    0.087701
    16  H    0.026110
    17  H    0.033487
    18  H    0.027181
    19  N   -0.304564
    20  C    0.229369
    21  C    0.180113
    22  N   -0.085479
    23  H    0.107695
    24  H    0.112959
    25  N   -0.279883
    26  C    0.198369
    27  N   -0.112141
    28  H    0.119313
    29  C    0.129991
    30  O   -0.316590
    31  C    0.029446
    32  N   -0.221157
    33  C    0.120723
    34  H    0.027816
    35  H    0.028199
    36  H    0.027501
    37  H    0.024667
    38  H    0.062443
    39  H    0.059142
    40  H    0.071393
    41  H    0.031192
    42  C   -0.114103
    43  O   -0.265000
    44  C    0.177188
    45  H    0.134716
    46  N   -0.135023
    47  O   -0.347853
    48  C    0.359404
    49  H    0.047642
    50  C    0.173078
    51  C    0.040719
    52  N   -0.291556
    53  H    0.036780
    54  H    0.024449
    55  H    0.028006
    56  H    0.122214
    57  H    0.115814
    58  N   -0.068388
    59  C    0.104146
    60  C    0.229857
    61  N   -0.281101
    62  H    0.058478
    63  C    0.171614
    64  N   -0.301364
    65  H    0.031535
    66  C    0.131487
    67  N   -0.261903
    68  C    0.024002
    69  C    0.165264
    70  N   -0.316742
 Sum of Mulliken charges =  -0.00000

 Dipole moment (field-independent basis, Debye):
    X=              7.2634    Y=              5.5844    Z=              3.4263  Tot=              9.7817
 Quadrupole moment (field-independent basis, Debye-Ang):
   XX=           -148.1096   YY=           -222.5157   ZZ=           -255.1807
   XY=              3.8560   XZ=              9.1209   YZ=            -11.5188

 Normal termination of Gaussian 16 at Tue Jan 23 21:19:58 2018.
