 Gaussian 16, Revision A.03,
 Gaussian 16:  EM64L-G16RevA.03 25-Dec-2016

 ---------------------------------------
 #p wb97xd/cc-pvdz sp scf=(maxcycles=20)
 ---------------------------------------

 ------------------
 Base pair stacking
 ------------------
 Symbolic Z-matrix:
 Charge =  0 Multiplicity = 1

                         Standard orientation:
 ---------------------------------------------------------------------
 Center     Atomic      Atomic             Coordinates (Angstroms)
 Number     Number       Type             X           Y           Z
 ---------------------------------------------------------------------
      1          7           0        5.502270   -1.657978   -1.232740
      2          6           0        6.894485   -1.174667   -1.154280
      3          6           0        3.308016   -1.750578   -1.350953
      4          7           0        3.751775   -3.064969   -1.337901
      5          6           0        5.055974   -2.956573   -1.267204
      6          1           0        5.747407   -3.799167   -1.237038
      7          7           0        1.926875    0.160437   -1.409347
      8          6           0        3.051053    0.881169   -1.343303
      9          1           0        2.911487    1.961346   -1.341981
     10          7           0        4.315788    0.469843   -1.278944
     11          6           0        4.375564   -0.872094   -1.286657
     12          6           0        2.020593   -1.187243   -1.415294
     13          7           0        0.899544   -1.908418   -1.481175
     14          1           0        0.921479   -2.908762   -1.488142
     15          1           0        0.000052   -1.473610   -1.525796
     16          1           0        7.408221   -1.503909   -1.946647
     17          1           0        6.901140   -0.175158   -1.145783
     18          1           0        7.321426   -1.516272   -0.317000
     19          7           0        4.005445    2.428211    1.262692
     20          6           0        2.657377    2.171556    1.192669
     21          6           0        4.645988    3.720552    0.946056
     22          7           0       -0.577361    3.242234    0.520458
     23          1           0       -1.499772    2.857289    0.535125
     24          1           0       -0.489565    4.199559    0.243813
     25          7           0        1.699160    3.049776    0.825809
     26          6           0        0.494330    2.508427    0.856500
     27          7           0        0.244840    1.206800    1.218474
     28          1           0       -0.708519    0.878083    1.212976
     29          6           0        1.215296    0.285473    1.599563
     30          8           0        0.883937   -0.866034    1.907748
     31          6           0        2.514762    0.852479    1.571500
     32          7           0        3.748464    0.292293    1.873277
     33          6           0        4.600619    1.261442    1.676302
     34          1           0        5.678700    1.178817    1.818365
     35          1           0        5.296454    3.597476    0.197360
     36          1           0        3.945942    4.379058    0.672987
     37          1           0        5.127166    4.062421    1.752546
     38          1           0       -5.575122   -0.323692    0.361726
     39          1           0       -5.719968   -0.094547    2.102757
     40          1           0       -4.550762    0.853854    1.183581
     41          1           0       -3.715829   -4.465776    1.953190
     42          6           0       -3.426096   -3.421064    1.839800
     43          8           0       -1.105675   -3.846218    2.088795
     44          6           0       -2.041231   -3.067119    1.908424
     45          1           0       -0.816756   -1.431236    1.794983
     46          7           0       -1.783997   -1.719989    1.752516
     47          8           0       -2.376598    0.446616    1.418062
     48          6           0       -2.701641   -0.720850    1.544680
     49          1           0       -5.410178   -2.685771    1.577953
     50          6           0       -4.344473   -2.468967    1.638077
     51          6           0       -5.032406   -0.108770    1.270209
     52          7           0       -4.016009   -1.141279    1.490665
     53          1           0       -4.878035    4.174315   -1.923511
     54          1           0       -3.654181    3.976203   -0.862831
     55          1           0       -5.201086    3.873493   -0.352332
     56          1           0       -2.610267   -2.891186   -1.960350
     57          1           0       -4.237223   -2.442195   -2.208354
     58          7           0       -3.304968   -2.171806   -1.965458
     59          6           0       -3.002655   -0.907799   -1.662023
     60          6           0       -3.477206    1.398454   -1.318875
     61          7           0       -2.216724    1.732616   -0.996470
     62          1           0       -0.380592    0.845927   -0.789155
     63          6           0       -1.424949    0.662936   -1.038347
     64          7           0       -1.725820   -0.603883   -1.342042
     65          1           0       -6.630418    1.837007   -1.881981
     66          6           0       -5.626286    1.431912   -1.753352
     67          7           0       -5.302310    0.173936   -1.927166
     68          6           0       -3.942400    0.138993   -1.654864
     69          6           0       -4.576364    3.679189   -1.108742
     70          7           0       -4.570488    2.229374   -1.384448
 ---------------------------------------------------------------------

 SCF Done:  E(RwB97XD) =  -2048.73255100     A.U. after   15 cycles

 The electronic state is 1-A.
 Alpha  occ. eigenvalues --  -19.25317 -19.21530 -19.20307 -14.53075 -14.52010
 Alpha  occ. eigenvalues --  -14.48832 -14.48585 -14.48201 -14.47390 -14.46307
 Alpha  occ. eigenvalues --  -14.45977 -14.45101 -14.44720 -14.44596 -14.42639
 Alpha  occ. eigenvalues --  -14.41426 -14.41261 -14.40887 -14.40365 -14.40203
 Alpha  occ. eigenvalues --  -10.44967 -10.40550 -10.40527 -10.39662 -10.38513
 Alpha  occ. eigenvalues --  -10.37818 -10.37713 -10.37449 -10.36111 -10.35540
 Alpha  occ. eigenvalues --  -10.34593 -10.34388 -10.33928 -10.33758 -10.33235
 Alpha  occ. eigenvalues --  -10.33115 -10.32953 -10.32872 -10.30872 -10.30755
 Alpha  occ. eigenvalues --  -10.30473 -10.28423 -10.27547  -1.19103  -1.15762
 Alpha  occ. eigenvalues --   -1.12768  -1.12573  -1.11169  -1.10126  -1.09812
 Alpha  occ. eigenvalues --   -1.08920  -1.07984  -1.05380  -1.05065  -1.02030
 Alpha  occ. eigenvalues --   -1.01569  -1.00567  -0.98879  -0.98111  -0.97364
 Alpha  occ. eigenvalues --   -0.96855  -0.96108  -0.92766  -0.90667  -0.88210
 Alpha  occ. eigenvalues --   -0.86520  -0.83874  -0.83546  -0.83120  -0.82253
 Alpha  occ. eigenvalues --   -0.82026  -0.78490  -0.77569  -0.75554  -0.74106
 Alpha  occ. eigenvalues --   -0.73045  -0.72938  -0.72885  -0.71109  -0.70958
 Alpha  occ. eigenvalues --   -0.67469  -0.66715  -0.66365  -0.66072  -0.64891
 Alpha  occ. eigenvalues --   -0.64060  -0.63365  -0.62809  -0.62508  -0.61166
 Alpha  occ. eigenvalues --   -0.60937  -0.60835  -0.60718  -0.59894  -0.59280
 Alpha  occ. eigenvalues --   -0.58998  -0.57702  -0.57007  -0.56376  -0.56045
 Alpha  occ. eigenvalues --   -0.55905  -0.55769  -0.55566  -0.54581  -0.54504
 Alpha  occ. eigenvalues --   -0.53747  -0.53696  -0.53345  -0.53180  -0.52877
 Alpha  occ. eigenvalues --   -0.52466  -0.51959  -0.51731  -0.50852  -0.50183
 Alpha  occ. eigenvalues --   -0.49974  -0.49638  -0.49598  -0.49005  -0.48882
 Alpha  occ. eigenvalues --   -0.48359  -0.48087  -0.47854  -0.47114  -0.46964
 Alpha  occ. eigenvalues --   -0.46785  -0.45578  -0.44814  -0.44376  -0.43468
 Alpha  occ. eigenvalues --   -0.41485  -0.40820  -0.39217  -0.38216  -0.38043
 Alpha  occ. eigenvalues --   -0.37627  -0.36836  -0.36463  -0.35659  -0.34996
 Alpha  occ. eigenvalues --   -0.34831  -0.33588  -0.33453  -0.32810  -0.32716
 Alpha  occ. eigenvalues --   -0.32271  -0.32045  -0.31828  -0.31490  -0.30802
 Alpha  occ. eigenvalues --   -0.30480  -0.30139  -0.25835  -0.24620
 Alpha virt. eigenvalues --    0.02989   0.03876   0.06320   0.07862   0.09007
 Alpha virt. eigenvalues --    0.09432   0.09742   0.10376   0.11352   0.12093
 Alpha virt. eigenvalues --    0.12394   0.13982   0.14536   0.14841   0.15243

 Mulliken charges:
               1
     1  N   -0.314163
     2  C    0.181880
     3  C    0.053182
     4  N   -0.262586
     5  C    0.137932
     6  H    0.026309
     7  N   -0.292594
     8  C    0.142939
     9  H    0.011290
    10  N   -0.285019
    11  C    0.261961
    12  C    0.100712
    13  N   -0.057989
    14  H    0.107328
    15  H    0.081804
    16  H    0.024231
    17  H    0.028987
    18  H    0.028622
    19  N   -0.286220
    20  C    0.201989
    21  C    0.180584
    22  N   -0.085205
    23  H    0.110241
    24  H    0.108038
    25  N   -0.297932
    26  C    0.204928
    27  N   -0.145967
    28  H    0.120031
    29  C    0.185798
    30  O   -0.323902
    31  C   -0.006261
    32  N   -0.220853
    33  C    0.131559
    34  H    0.015276
    35  H    0.028094
    36  H    0.026803
    37  H    0.023047
    38  H    0.063503
    39  H    0.056714
    40  H    0.068956
    41  H    0.028540
    42  C   -0.113345
    43  O   -0.263665
    44  C    0.176505
    45  H    0.131179
    46  N   -0.125011
    47  O   -0.335018
    48  C    0.334169
    49  H    0.045152
    50  C    0.165438
    51  C    0.039901
    52  N   -0.283317
    53  H    0.037043
    54  H    0.034347
    55  H    0.031951
    56  H    0.121389
    57  H    0.118048
    58  N   -0.060133
    59  C    0.091368
    60  C    0.261386
    61  N   -0.289044
    62  H    0.060972
    63  C    0.153022
    64  N   -0.298903
    65  H    0.038870
    66  C    0.131128
    67  N   -0.256542
    68  C    0.014131
    69  C    0.181878
    70  N   -0.305485
 Sum of Mulliken charges =  -0.00000

 Dipole moment (field-independent basis, Debye):
    X=             -8.1718    Y=              6.0617    Z=             -3.3404  Tot=             10.7089
 Quadrupole moment (field-independent basis, Debye-Ang):
   XX=           -154.6152   YY=           -221.8337   ZZ=           -256.3826
   XY=              0.1120   XZ=             -4.6228   YZ=             12.4261

 Normal termination of Gaussian 16 at Wed Jan 24 00:13:34 2018.
