 Gaussian 16, Revision A.03,
 Gaussian 16:  EM64L-G16RevA.03 25-Dec-2016

 ---------------------------------------
 #p wb97xd/cc-pvdz sp scf=(maxcycles=20)
 ---------------------------------------

 ------------------
 Base pair stacking
 ------------------
 Symbolic Z-matrix:
 Charge =  0 Multiplicity = 1

                         Standard orientation:
 ---------------------------------------------------------------------
 Center     Atomic      Atomic             Coordinates (Angstroms)
 Number     Number       Type             X           Y           Z
 ---------------------------------------------------------------------
      1          7           0        4.245249   -2.036056   -1.904281
      2          6           0        5.624067   -1.642104   -2.253102
      3          6           0        2.073878   -2.018445   -1.554751
      4          7           0        2.509477   -3.294086   -1.226512
      5          6           0        3.800204   -3.253637   -1.450224
      6          1           0        4.482108   -4.091029   -1.299500
      7          7           0        0.712376   -0.128240   -1.924034
      8          6           0        1.826613    0.505195   -2.304583
      9          1           0        1.691397    1.542645   -2.607355
     10          7           0        3.076922    0.051625   -2.366999
     11          6           0        3.132505   -1.231741   -1.974196
     12          6           0        0.801528   -1.418744   -1.534502
     13          7           0       -0.309608   -2.052753   -1.154269
     14          1           0       -0.290568   -3.008345   -0.858150
     15          1           0       -1.198470   -1.594418   -1.152459
     16          1           0        5.962525   -2.226244   -2.990946
     17          1           0        5.633308   -0.688694   -2.553170
     18          1           0        6.214578   -1.743532   -1.452475
     19          7           0        5.212089    2.427519    0.666241
     20          6           0        3.864322    2.230404    0.847139
     21          6           0        5.849826    3.719018    0.340603
     22          7           0        0.626471    3.483461    0.935861
     23          1           0       -0.295262    3.134355    1.102518
     24          1           0        0.712099    4.458964    0.731464
     25          7           0        2.903907    3.175804    0.758533
     26          6           0        1.700056    2.680346    0.984099
     27          7           0        1.453472    1.360334    1.274397
     28          1           0        0.500663    1.070271    1.432487
     29          6           0        2.426232    0.370225    1.370673
     30          8           0        2.097429   -0.792167    1.638028
     31          6           0        3.724676    0.887338    1.130839
     32          7           0        4.959914    0.254022    1.128102
     33          6           0        5.810042    1.204461    0.848500
     34          1           0        6.888536    1.067475    0.762780
     35          1           0        6.332001    3.644028   -0.531569
     36          1           0        5.148138    4.427005    0.272401
     37          1           0        6.499034    3.962904    1.060235
     38          1           0       -4.498354    0.142626    1.477758
     39          1           0       -4.284128    0.208125    3.225454
     40          1           0       -3.267139    1.195491    2.175595
     41          1           0       -2.599545   -4.201507    2.296022
     42          6           0       -2.279148   -3.162540    2.217815
     43          8           0        0.016989   -3.697883    1.956435
     44          6           0       -0.890124   -2.869924    2.036591
     45          1           0        0.378628   -1.278601    1.821451
     46          7           0       -0.592787   -1.524820    1.949743
     47          8           0       -1.116026    0.684941    1.931069
     48          6           0       -1.475324   -0.476046    2.018614
     49          1           0       -4.231046   -2.330313    2.425868
     50          6           0       -3.163847   -2.161110    2.288723
     51          6           0       -3.776009    0.248063    2.273473
     52          7           0       -2.796221   -0.838888    2.194115
     53          1           0       -6.047859    3.975694   -2.297089
     54          1           0       -4.631314    4.026585   -1.489047
     55          1           0       -6.039332    4.181514   -0.678138
     56          1           0       -3.843605   -2.906007   -0.609231
     57          1           0       -5.486245   -2.448363   -0.658214
     58          7           0       -4.523638   -2.178149   -0.698187
     59          6           0       -4.163892   -0.903535   -0.862831
     60          6           0       -4.554982    1.424955   -1.157619
     61          7           0       -3.254755    1.758621   -1.207615
     62          1           0       -1.416293    0.858726   -1.103339
     63          6           0       -2.489784    0.677010   -1.074017
     64          7           0       -2.848188   -0.600449   -0.909018
     65          1           0       -7.756054    1.876348   -1.196899
     66          6           0       -6.747422    1.464765   -1.150164
     67          7           0       -6.467611    0.194464   -0.989722
     68          6           0       -5.080819    0.155391   -0.992668
     69          6           0       -5.584716    3.729464   -1.445696
     70          7           0       -5.637389    2.266492   -1.258784
 ---------------------------------------------------------------------

 SCF Done:  E(RwB97XD) =  -2048.74827866     A.U. after   15 cycles

 The electronic state is 1-A.
 Alpha  occ. eigenvalues --  -19.25365 -19.21476 -19.20674 -14.52562 -14.51864
 Alpha  occ. eigenvalues --  -14.49118 -14.48952 -14.47965 -14.47243 -14.46896
 Alpha  occ. eigenvalues --  -14.46725 -14.45517 -14.44966 -14.44758 -14.42733
 Alpha  occ. eigenvalues --  -14.42147 -14.41381 -14.40786 -14.40587 -14.40402
 Alpha  occ. eigenvalues --  -10.44921 -10.41337 -10.40516 -10.39590 -10.38318
 Alpha  occ. eigenvalues --  -10.38098 -10.37511 -10.37509 -10.36248 -10.35491
 Alpha  occ. eigenvalues --  -10.34584 -10.34445 -10.33904 -10.33767 -10.33363
 Alpha  occ. eigenvalues --  -10.33036 -10.32935 -10.32896 -10.31217 -10.30753
 Alpha  occ. eigenvalues --  -10.29995 -10.28352 -10.28167  -1.18885  -1.15374
 Alpha  occ. eigenvalues --   -1.13307  -1.12496  -1.10841  -1.10646  -1.09876
 Alpha  occ. eigenvalues --   -1.08784  -1.08628  -1.05345  -1.05014  -1.01900
 Alpha  occ. eigenvalues --   -1.01151  -1.00485  -0.99816  -0.98702  -0.97377
 Alpha  occ. eigenvalues --   -0.96884  -0.96318  -0.92717  -0.90658  -0.87917
 Alpha  occ. eigenvalues --   -0.86044  -0.84382  -0.83379  -0.83052  -0.82746
 Alpha  occ. eigenvalues --   -0.81668  -0.78411  -0.77404  -0.75215  -0.74819
 Alpha  occ. eigenvalues --   -0.73730  -0.72846  -0.72658  -0.70861  -0.70708
 Alpha  occ. eigenvalues --   -0.67514  -0.67213  -0.66097  -0.66047  -0.64580
 Alpha  occ. eigenvalues --   -0.64450  -0.63568  -0.62697  -0.62531  -0.61911
 Alpha  occ. eigenvalues --   -0.60882  -0.60536  -0.60124  -0.59617  -0.59161
 Alpha  occ. eigenvalues --   -0.59046  -0.58436  -0.56908  -0.56337  -0.55743
 Alpha  occ. eigenvalues --   -0.55575  -0.55455  -0.55349  -0.54834  -0.54191
 Alpha  occ. eigenvalues --   -0.53867  -0.53640  -0.53454  -0.53080  -0.53046
 Alpha  occ. eigenvalues --   -0.52387  -0.51900  -0.51193  -0.50375  -0.50252
 Alpha  occ. eigenvalues --   -0.50128  -0.49768  -0.49522  -0.49146  -0.48880
 Alpha  occ. eigenvalues --   -0.48599  -0.48195  -0.48028  -0.47814  -0.47208
 Alpha  occ. eigenvalues --   -0.46563  -0.45619  -0.45543  -0.44712  -0.43436
 Alpha  occ. eigenvalues --   -0.41079  -0.40939  -0.39073  -0.38102  -0.37898
 Alpha  occ. eigenvalues --   -0.37510  -0.37410  -0.36739  -0.35407  -0.35235
 Alpha  occ. eigenvalues --   -0.34787  -0.34134  -0.33195  -0.33180  -0.33021
 Alpha  occ. eigenvalues --   -0.32664  -0.32548  -0.32009  -0.31463  -0.30509
 Alpha  occ. eigenvalues --   -0.30446  -0.30236  -0.25986  -0.25392
 Alpha virt. eigenvalues --    0.03489   0.03697   0.06602   0.08201   0.08826
 Alpha virt. eigenvalues --    0.09074   0.09651   0.10338   0.11121   0.11566
 Alpha virt. eigenvalues --    0.13674   0.14223   0.14413   0.14833   0.14939

 Mulliken charges:
               1
     1  N   -0.309626
     2  C    0.183042
     3  C    0.060507
     4  N   -0.255763
     5  C    0.148216
     6  H    0.027814
     7  N   -0.295756
     8  C    0.126486
     9  H    0.011130
    10  N   -0.280261
    11  C    0.253020
    12  C    0.083526
    13  N   -0.069357
    14  H    0.115122
    15  H    0.081999
    16  H    0.019862
    17  H    0.029649
    18  H    0.032015
    19  N   -0.311105
    20  C    0.258596
    21  C    0.181401
    22  N   -0.123670
    23  H    0.120848
    24  H    0.118238
    25  N   -0.312666
    26  C    0.246867
    27  N   -0.143183
    28  H    0.120214
    29  C    0.187143
    30  O   -0.319266
    31  C   -0.009597
    32  N   -0.233788
    33  C    0.123169
    34  H    0.022640
    35  H    0.027324
    36  H    0.030467
    37  H    0.025180
    38  H    0.066464
    39  H    0.058064
    40  H    0.076151
    41  H    0.025386
    42  C   -0.120883
    43  O   -0.259364
    44  C    0.164464
    45  H    0.135448
    46  N   -0.123579
    47  O   -0.351971
    48  C    0.354110
    49  H    0.040627
    50  C    0.167964
    51  C    0.036181
    52  N   -0.278227
    53  H    0.034211
    54  H    0.041096
    55  H    0.030206
    56  H    0.117672
    57  H    0.119434
    58  N   -0.064959
    59  C    0.077841
    60  C    0.243056
    61  N   -0.269238
    62  H    0.031280
    63  C    0.174413
    64  N   -0.311796
    65  H    0.039898
    66  C    0.140832
    67  N   -0.259653
    68  C    0.024628
    69  C    0.180573
    70  N   -0.310771
 Sum of Mulliken charges =  -0.00000

 Dipole moment (field-independent basis, Debye):
    X=             -7.9704    Y=              7.0141    Z=             -0.4810  Tot=             10.6281
 Quadrupole moment (field-independent basis, Debye-Ang):
   XX=           -165.0873   YY=           -217.9881   ZZ=           -250.2696
   XY=              5.2695   XZ=            -17.4188   YZ=              6.4744

 Normal termination of Gaussian 16 at Wed Jan 24 07:56:08 2018.
