 Gaussian 16, Revision A.03,
 Gaussian 16:  EM64L-G16RevA.03 25-Dec-2016

 ---------------------------------------
 #p wb97xd/cc-pvdz sp scf=(maxcycles=20)
 ---------------------------------------

 ------------------
 Base pair stacking
 ------------------
 Symbolic Z-matrix:
 Charge =  0 Multiplicity = 1

                         Standard orientation:
 ---------------------------------------------------------------------
 Center     Atomic      Atomic             Coordinates (Angstroms)
 Number     Number       Type             X           Y           Z
 ---------------------------------------------------------------------
      1          7           0        4.569090   -2.281217   -1.664387
      2          6           0        5.935132   -1.971516   -2.129148
      3          6           0        2.404006   -2.201492   -1.285690
      4          7           0        2.865898   -3.348921   -0.657368
      5          6           0        4.151792   -3.351029   -0.910664
      6          1           0        4.849740   -4.115951   -0.569028
      7          7           0        1.005744   -0.480133   -2.088622
      8          6           0        2.102834    0.050384   -2.638653
      9          1           0        1.945558    0.977113   -3.188839
     10          7           0        3.359128   -0.389919   -2.611203
     11          6           0        3.442340   -1.533021   -1.910624
     12          6           0        1.122580   -1.630557   -1.390098
     13          7           0        0.028586   -2.161677   -0.840312
     14          1           0        0.068275   -3.012166   -0.314661
     15          1           0       -0.867460   -1.727797   -0.935052
     16          1           0        6.270420   -2.718108   -2.703919
     17          1           0        5.923692   -1.123802   -2.658649
     18          1           0        6.540822   -1.862086   -1.341000
     19          7           0        4.896341    2.646840    0.676484
     20          6           0        3.549964    2.457636    0.875253
     21          6           0        5.535536    3.931545    0.327688
     22          7           0        0.318467    3.725328    0.985689
     23          1           0       -0.602691    3.382172    1.167183
     24          1           0        0.405715    4.697885    0.768328
     25          7           0        2.592444    3.405925    0.786032
     26          6           0        1.389267    2.918347    1.031485
     27          7           0        1.140659    1.603046    1.340821
     28          1           0        0.188572    1.318960    1.513386
     29          6           0        2.110429    0.610092    1.438105
     30          8           0        1.779995   -0.547533    1.723501
     31          6           0        3.408119    1.118750    1.177041
     32          7           0        4.640652    0.480261    1.167928
     33          6           0        5.491368    1.423603    0.866917
     34          1           0        6.568236    1.281029    0.770517
     35          1           0        6.007325    3.843837   -0.548974
     36          1           0        4.836007    4.641597    0.258828
     37          1           0        6.193977    4.181504    1.036762
     38          1           0       -4.813330    0.413013    1.627417
     39          1           0       -4.578712    0.499028    3.371612
     40          1           0       -3.569881    1.469157    2.298078
     41          1           0       -2.922926   -3.928733    2.477253
     42          6           0       -2.599223   -2.892157    2.382588
     43          8           0       -0.308451   -3.440336    2.101501
     44          6           0       -1.211198   -2.607641    2.181863
     45          1           0        0.061451   -1.024433    1.932600
     46          7           0       -0.909410   -1.264970    2.075055
     47          8           0       -1.423819    0.946589    2.035180
     48          6           0       -1.786808   -0.211718    2.141131
     49          1           0       -4.545195   -2.049226    2.602771
     50          6           0       -3.478962   -1.886213    2.451316
     51          6           0       -4.081433    0.525157    2.413442
     52          7           0       -3.107063   -0.566805    2.336225
     53          1           0       -5.825924    3.320990   -3.338478
     54          1           0       -4.396795    3.589212   -2.598370
     55          1           0       -5.793092    3.926368   -1.823271
     56          1           0       -3.481189   -2.891562   -0.026072
     57          1           0       -5.131666   -2.479770   -0.154259
     58          7           0       -4.174433   -2.217154   -0.280516
     59          6           0       -3.838387   -1.020528   -0.766655
     60          6           0       -4.272390    1.154934   -1.627312
     61          7           0       -2.978815    1.480329   -1.786131
     62          1           0       -1.124411    0.656573   -1.497658
     63          6           0       -2.194137    0.475677   -1.401604
     64          7           0       -2.528787   -0.723597   -0.914433
     65          1           0       -7.480605    1.545180   -1.712391
     66          6           0       -6.464732    1.170109   -1.584845
     67          7           0       -6.161545   -0.016037   -1.117049
     68          6           0       -4.774554   -0.038636   -1.138721
     69          6           0       -5.344342    3.301511   -2.462300
     70          7           0       -5.369947    1.931677   -1.913739
 ---------------------------------------------------------------------

 SCF Done:  E(RwB97XD) =  -2048.74319825     A.U. after   15 cycles

 The electronic state is 1-A.
 Alpha  occ. eigenvalues --  -19.25812 -19.22061 -19.20768 -14.52483 -14.52396
 Alpha  occ. eigenvalues --  -14.49146 -14.48519 -14.47690 -14.47686 -14.47096
 Alpha  occ. eigenvalues --  -14.46924 -14.45422 -14.44642 -14.44422 -14.42275
 Alpha  occ. eigenvalues --  -14.41884 -14.41325 -14.40309 -14.40228 -14.39861
 Alpha  occ. eigenvalues --  -10.45438 -10.41500 -10.40204 -10.40189 -10.38428
 Alpha  occ. eigenvalues --  -10.38183 -10.37986 -10.37269 -10.35920 -10.35009
 Alpha  occ. eigenvalues --  -10.34914 -10.34669 -10.33746 -10.33739 -10.33020
 Alpha  occ. eigenvalues --  -10.32807 -10.32509 -10.32505 -10.31234 -10.31081
 Alpha  occ. eigenvalues --  -10.30007 -10.28427 -10.27702  -1.19361  -1.15190
 Alpha  occ. eigenvalues --   -1.13429  -1.13096  -1.10894  -1.10314  -1.09692
 Alpha  occ. eigenvalues --   -1.09234  -1.08791  -1.05072  -1.04478  -1.02398
 Alpha  occ. eigenvalues --   -1.00995  -0.99996  -0.99885  -0.98811  -0.97087
 Alpha  occ. eigenvalues --   -0.96932  -0.95974  -0.92176  -0.91237  -0.87673
 Alpha  occ. eigenvalues --   -0.85855  -0.84444  -0.83549  -0.83046  -0.82814
 Alpha  occ. eigenvalues --   -0.81440  -0.78962  -0.77177  -0.74956  -0.74919
 Alpha  occ. eigenvalues --   -0.73890  -0.73348  -0.72207  -0.70578  -0.70322
 Alpha  occ. eigenvalues --   -0.67655  -0.67001  -0.66578  -0.65611  -0.64641
 Alpha  occ. eigenvalues --   -0.64360  -0.63949  -0.62879  -0.62057  -0.62027
 Alpha  occ. eigenvalues --   -0.60745  -0.60310  -0.60044  -0.59617  -0.59288
 Alpha  occ. eigenvalues --   -0.59204  -0.58621  -0.56924  -0.56063  -0.55940
 Alpha  occ. eigenvalues --   -0.55341  -0.55271  -0.54963  -0.54579  -0.54312
 Alpha  occ. eigenvalues --   -0.53849  -0.53735  -0.53637  -0.53254  -0.53051
 Alpha  occ. eigenvalues --   -0.52833  -0.52393  -0.50954  -0.50427  -0.50055
 Alpha  occ. eigenvalues --   -0.49871  -0.49604  -0.49454  -0.49359  -0.49034
 Alpha  occ. eigenvalues --   -0.48600  -0.48317  -0.48198  -0.48043  -0.47448
 Alpha  occ. eigenvalues --   -0.46213  -0.45799  -0.45593  -0.44290  -0.43531
 Alpha  occ. eigenvalues --   -0.40729  -0.40539  -0.39432  -0.37803  -0.37652
 Alpha  occ. eigenvalues --   -0.37591  -0.37547  -0.36340  -0.35838  -0.34958
 Alpha  occ. eigenvalues --   -0.34486  -0.34241  -0.33333  -0.32936  -0.32818
 Alpha  occ. eigenvalues --   -0.32746  -0.32530  -0.32287  -0.32107  -0.30133
 Alpha  occ. eigenvalues --   -0.30015  -0.29803  -0.25824  -0.25122
 Alpha virt. eigenvalues --    0.02512   0.04254   0.06746   0.08450   0.08827
 Alpha virt. eigenvalues --    0.08968   0.09529   0.10510   0.11281   0.11651
 Alpha virt. eigenvalues --    0.13575   0.14215   0.14404   0.15240   0.15259

 Mulliken charges:
               1
     1  N   -0.311413
     2  C    0.182614
     3  C    0.053433
     4  N   -0.252566
     5  C    0.144991
     6  H    0.025387
     7  N   -0.301034
     8  C    0.131503
     9  H    0.008683
    10  N   -0.287023
    11  C    0.255135
    12  C    0.093755
    13  N   -0.069103
    14  H    0.115907
    15  H    0.084721
    16  H    0.021011
    17  H    0.030253
    18  H    0.027873
    19  N   -0.311065
    20  C    0.254263
    21  C    0.180872
    22  N   -0.124117
    23  H    0.118006
    24  H    0.118763
    25  N   -0.312413
    26  C    0.250403
    27  N   -0.150601
    28  H    0.120658
    29  C    0.198864
    30  O   -0.319744
    31  C   -0.014513
    32  N   -0.230203
    33  C    0.126186
    34  H    0.022750
    35  H    0.028317
    36  H    0.030145
    37  H    0.025271
    38  H    0.065163
    39  H    0.059513
    40  H    0.075181
    41  H    0.027807
    42  C   -0.136653
    43  O   -0.265164
    44  C    0.170931
    45  H    0.133160
    46  N   -0.123203
    47  O   -0.350224
    48  C    0.353037
    49  H    0.041955
    50  C    0.175122
    51  C    0.036756
    52  N   -0.277744
    53  H    0.033917
    54  H    0.042591
    55  H    0.029030
    56  H    0.117369
    57  H    0.115362
    58  N   -0.061467
    59  C    0.097174
    60  C    0.251424
    61  N   -0.272174
    62  H    0.035981
    63  C    0.177288
    64  N   -0.318279
    65  H    0.038902
    66  C    0.139203
    67  N   -0.265302
    68  C    0.018748
    69  C    0.180361
    70  N   -0.311732
 Sum of Mulliken charges =  -0.00000

 Dipole moment (field-independent basis, Debye):
    X=             -8.0891    Y=              7.2751    Z=             -0.0946  Tot=             10.8798
 Quadrupole moment (field-independent basis, Debye-Ang):
   XX=           -162.3545   YY=           -217.9562   ZZ=           -248.5416
   XY=              2.1719   XZ=            -13.8078   YZ=              1.0951

 Normal termination of Gaussian 16 at Wed Jan 24 02:55:43 2018.
