 Gaussian 16, Revision A.03,
 Gaussian 16:  EM64L-G16RevA.03 25-Dec-2016

 ---------------------------------------
 #p wb97xd/cc-pvdz sp scf=(maxcycles=20)
 ---------------------------------------

 ------------------
 Base pair stacking
 ------------------
 Symbolic Z-matrix:
 Charge =  0 Multiplicity = 1

                         Standard orientation:
 ---------------------------------------------------------------------
 Center     Atomic      Atomic             Coordinates (Angstroms)
 Number     Number       Type             X           Y           Z
 ---------------------------------------------------------------------
      1          7           0       -5.240550   -2.038236    1.344419
      2          6           0       -6.628681   -1.647237    1.657814
      3          6           0       -3.049142   -2.060472    1.158584
      4          7           0       -3.499474   -3.239405    0.582360
      5          6           0       -4.801694   -3.178820    0.717383
      6          1           0       -5.496901   -3.945702    0.374553
      7          7           0       -1.659231   -0.326294    1.948338
      8          6           0       -2.778341    0.282787    2.353550
      9          1           0       -2.633143    1.245492    2.841793
     10          7           0       -4.043942   -0.116908    2.246704
     11          6           0       -4.110837   -1.309798    1.632734
     12          6           0       -1.760082   -1.525214    1.333945
     13          7           0       -0.644102   -2.134771    0.928726
     14          1           0       -0.671369   -3.023401    0.469570
     15          1           0        0.256768   -1.724210    1.070222
     16          1           0       -7.042636   -2.333289    2.256271
     17          1           0       -6.629975   -0.760140    2.118449
     18          1           0       -7.157988   -1.582413    0.811868
     19          7           0       -4.245677    2.751646   -1.076067
     20          6           0       -2.895117    2.511283   -1.155212
     21          6           0       -4.864138    4.060069   -0.782418
     22          7           0        0.379137    3.655379   -0.976158
     23          1           0        1.299100    3.277325   -1.076106
     24          1           0        0.309886    4.630789   -0.765231
     25          7           0       -1.914037    3.422668   -0.979427
     26          6           0       -0.713175    2.889534   -1.118410
     27          7           0       -0.488155    1.565394   -1.407425
     28          1           0        0.464038    1.245203   -1.495599
     29          6           0       -1.482402    0.609830   -1.592429
     30          8           0       -1.172073   -0.559826   -1.849989
     31          6           0       -2.777907    1.167636   -1.446211
     32          7           0       -4.029701    0.576357   -1.547717
     33          6           0       -4.867393    1.551630   -1.321170
     34          1           0       -5.953199    1.450114   -1.320850
     35          1           0       -5.414720    3.991327    0.048809
     36          1           0       -4.147063    4.743151   -0.650299
     37          1           0       -5.447222    4.333997   -1.546473
     38          1           0        5.418446    0.150071   -1.168118
     39          1           0        5.342727    0.242915   -2.926039
     40          1           0        4.280215    1.251842   -1.943944
     41          1           0        3.447677   -4.117820   -2.191677
     42          6           0        3.156355   -3.069611   -2.123768
     43          8           0        0.830577   -3.530191   -2.047903
     44          6           0        1.767790   -2.732431   -2.046141
     45          1           0        0.538943   -1.101808   -1.907099
     46          7           0        1.508796   -1.379150   -1.963518
     47          8           0        2.101051    0.811344   -1.873347
     48          6           0        2.427867   -0.360014   -1.949281
     49          1           0        5.144709   -2.301340   -2.168837
     50          6           0        4.076196   -2.097837   -2.112065
     51          6           0        4.763847    0.288990   -2.015626
     52          7           0        3.745814   -0.765142   -2.027447
     53          1           0        5.182464    3.338029    3.512396
     54          1           0        3.835673    3.591903    2.627076
     55          1           0        5.306944    3.819085    1.957887
     56          1           0        2.891701   -3.042925    0.495556
     57          1           0        4.539663   -2.676349    0.740398
     58          7           0        3.586262   -2.373150    0.758453
     59          6           0        3.256832   -1.130629    1.117318
     60          6           0        3.700006    1.092174    1.841527
     61          7           0        2.411500    1.471581    1.856507
     62          1           0        0.558213    0.688281    1.466165
     63          6           0        1.624170    0.465256    1.481917
     64          7           0        1.952197   -0.779948    1.122112
     65          1           0        6.901361    1.382780    2.186520
     66          6           0        5.886470    1.032051    1.996997
     67          7           0        5.578463   -0.177606    1.597566
     68          6           0        4.195130   -0.152946    1.495049
     69          6           0        4.779270    3.263223    2.600349
     70          7           0        4.798283    1.853263    2.164866
 ---------------------------------------------------------------------

 SCF Done:  E(RwB97XD) =  -2048.74423943     A.U. after   15 cycles

 The electronic state is 1-A.
 Alpha  occ. eigenvalues --  -19.25886 -19.22317 -19.20667 -14.52548 -14.52366
 Alpha  occ. eigenvalues --  -14.48914 -14.48216 -14.47981 -14.47855 -14.47004
 Alpha  occ. eigenvalues --  -14.46778 -14.45462 -14.44269 -14.44189 -14.42122
 Alpha  occ. eigenvalues --  -14.41764 -14.41038 -14.40556 -14.40371 -14.39819
 Alpha  occ. eigenvalues --  -10.45517 -10.41353 -10.40356 -10.39936 -10.38303
 Alpha  occ. eigenvalues --  -10.38024 -10.37972 -10.37121 -10.35676 -10.34948
 Alpha  occ. eigenvalues --  -10.34895 -10.34461 -10.33775 -10.33476 -10.33301
 Alpha  occ. eigenvalues --  -10.32664 -10.32639 -10.32575 -10.31203 -10.31035
 Alpha  occ. eigenvalues --  -10.30385 -10.28223 -10.27825  -1.19458  -1.15121
 Alpha  occ. eigenvalues --   -1.13298  -1.13271  -1.10696  -1.10562  -1.09525
 Alpha  occ. eigenvalues --   -1.09190  -1.08656  -1.04828  -1.04480  -1.02548
 Alpha  occ. eigenvalues --   -1.00944  -0.99881  -0.99841  -0.98648  -0.96838
 Alpha  occ. eigenvalues --   -0.96717  -0.96204  -0.92165  -0.91239  -0.87549
 Alpha  occ. eigenvalues --   -0.85812  -0.84235  -0.83568  -0.83260  -0.82618
 Alpha  occ. eigenvalues --   -0.81679  -0.79039  -0.77005  -0.74781  -0.74729
 Alpha  occ. eigenvalues --   -0.73750  -0.73429  -0.72305  -0.70492  -0.70355
 Alpha  occ. eigenvalues --   -0.67497  -0.66848  -0.66589  -0.65696  -0.64586
 Alpha  occ. eigenvalues --   -0.64242  -0.63881  -0.62762  -0.62121  -0.61873
 Alpha  occ. eigenvalues --   -0.60580  -0.60270  -0.60119  -0.59607  -0.59259
 Alpha  occ. eigenvalues --   -0.59217  -0.58472  -0.56726  -0.56059  -0.56032
 Alpha  occ. eigenvalues --   -0.55686  -0.55232  -0.54895  -0.54507  -0.54070
 Alpha  occ. eigenvalues --   -0.53767  -0.53693  -0.53533  -0.53311  -0.53089
 Alpha  occ. eigenvalues --   -0.52738  -0.52412  -0.51181  -0.50312  -0.50128
 Alpha  occ. eigenvalues --   -0.49878  -0.49568  -0.49512  -0.49082  -0.48994
 Alpha  occ. eigenvalues --   -0.48661  -0.48461  -0.48297  -0.47806  -0.47427
 Alpha  occ. eigenvalues --   -0.46361  -0.45819  -0.45460  -0.44275  -0.43573
 Alpha  occ. eigenvalues --   -0.40657  -0.40532  -0.39470  -0.37563  -0.37520
 Alpha  occ. eigenvalues --   -0.37393  -0.37383  -0.36505  -0.36020  -0.34702
 Alpha  occ. eigenvalues --   -0.34300  -0.34037  -0.33448  -0.32899  -0.32810
 Alpha  occ. eigenvalues --   -0.32769  -0.32608  -0.32449  -0.31983  -0.30295
 Alpha  occ. eigenvalues --   -0.29916  -0.29614  -0.25628  -0.25118
 Alpha virt. eigenvalues --    0.02468   0.04287   0.06910   0.08423   0.08682
 Alpha virt. eigenvalues --    0.09196   0.09678   0.10515   0.11585   0.11692
 Alpha virt. eigenvalues --    0.13161   0.14392   0.14726   0.14879   0.15050

 Mulliken charges:
               1
     1  N   -0.312452
     2  C    0.181635
     3  C    0.053739
     4  N   -0.256943
     5  C    0.140077
     6  H    0.024863
     7  N   -0.299945
     8  C    0.134210
     9  H    0.008871
    10  N   -0.290334
    11  C    0.254470
    12  C    0.102524
    13  N   -0.057317
    14  H    0.115129
    15  H    0.082657
    16  H    0.023065
    17  H    0.030968
    18  H    0.025598
    19  N   -0.310929
    20  C    0.253168
    21  C    0.180730
    22  N   -0.121444
    23  H    0.115878
    24  H    0.117597
    25  N   -0.311561
    26  C    0.247335
    27  N   -0.150617
    28  H    0.120762
    29  C    0.196826
    30  O   -0.321617
    31  C   -0.016051
    32  N   -0.226107
    33  C    0.130274
    34  H    0.021559
    35  H    0.029352
    36  H    0.029242
    37  H    0.024456
    38  H    0.063144
    39  H    0.059415
    40  H    0.073026
    41  H    0.027250
    42  C   -0.128241
    43  O   -0.266248
    44  C    0.163073
    45  H    0.131035
    46  N   -0.115032
    47  O   -0.343452
    48  C    0.337433
    49  H    0.045503
    50  C    0.169802
    51  C    0.037129
    52  N   -0.275306
    53  H    0.034120
    54  H    0.041929
    55  H    0.027966
    56  H    0.125775
    57  H    0.113022
    58  N   -0.050472
    59  C    0.089455
    60  C    0.252954
    61  N   -0.275318
    62  H    0.036452
    63  C    0.172918
    64  N   -0.312445
    65  H    0.037705
    66  C    0.137540
    67  N   -0.268677
    68  C    0.020168
    69  C    0.180278
    70  N   -0.311570
 Sum of Mulliken charges =  -0.00000

 Dipole moment (field-independent basis, Debye):
    X=              8.2983    Y=              6.7155    Z=              0.9353  Tot=             10.7161
 Quadrupole moment (field-independent basis, Debye-Ang):
   XX=           -157.6141   YY=           -217.9353   ZZ=           -251.5535
   XY=             -1.3339   XZ=             -6.8493   YZ=             -2.5599

 Normal termination of Gaussian 16 at Tue Jan 23 21:08:02 2018.
