 Gaussian 16, Revision A.03,
 Gaussian 16:  EM64L-G16RevA.03 25-Dec-2016

 ---------------------------------------
 #p wb97xd/cc-pvdz sp scf=(maxcycles=20)
 ---------------------------------------

 ------------------
 Base pair stacking
 ------------------
 Symbolic Z-matrix:
 Charge =  0 Multiplicity = 1

                         Standard orientation:
 ---------------------------------------------------------------------
 Center     Atomic      Atomic             Coordinates (Angstroms)
 Number     Number       Type             X           Y           Z
 ---------------------------------------------------------------------
      1          7           0       -6.921036   -1.469131    0.286339
      2          6           0       -8.291558   -0.943444    0.133589
      3          6           0       -4.753671   -1.635222    0.621365
      4          7           0       -5.206542   -2.921424    0.365765
      5          6           0       -6.494172   -2.769875    0.174156
      6          1           0       -7.186652   -3.580594   -0.054248
      7          7           0       -3.367956    0.209843    1.109712
      8          6           0       -4.470999    0.961480    1.032940
      9          1           0       -4.321299    2.026123    1.207280
     10          7           0       -5.725322    0.597167    0.774369
     11          6           0       -5.799036   -0.729325    0.575794
     12          6           0       -3.475282   -1.121186    0.904955
     13          7           0       -2.375327   -1.873159    0.981179
     14          1           0       -2.407920   -2.862753    0.836745
     15          1           0       -1.481697   -1.473206    1.185129
     16          1           0       -8.891642   -1.372058    0.809139
     17          1           0       -8.287219    0.046291    0.273368
     18          1           0       -8.628369   -1.147075   -0.785697
     19          7           0       -2.400369    2.580296   -1.721215
     20          6           0       -1.079928    2.280282   -1.487824
     21          6           0       -3.007472    3.920065   -1.590221
     22          7           0        2.117821    3.285582   -0.579215
     23          1           0        3.017694    2.866183   -0.462773
     24          1           0        2.048156    4.267289   -0.400006
     25          7           0       -0.122923    3.152000   -1.102711
     26          6           0        1.051802    2.564757   -0.958583
     27          7           0        1.274411    1.226355   -1.174589
     28          1           0        2.205676    0.863616   -1.039960
     29          6           0        0.304626    0.310895   -1.571217
     30          8           0        0.610295   -0.876214   -1.738802
     31          6           0       -0.962660    0.927018   -1.730143
     32          7           0       -2.184887    0.388285   -2.108061
     33          6           0       -3.005575    1.403328   -2.088821
     34          1           0       -4.066568    1.348774   -2.334970
     35          1           0       -3.735148    3.892614   -0.905725
     36          1           0       -2.308026    4.574206   -1.305376
     37          1           0       -3.388191    4.202775   -2.469958
     38          1           0        6.899218   -0.437089    0.420002
     39          1           0        7.229399   -0.378024   -1.309774
     40          1           0        6.019908    0.696208   -0.606556
     41          1           0        5.015151   -4.636565   -0.980439
     42          6           0        4.765396   -3.575567   -0.991882
     43          8           0        2.464298   -3.933698   -1.443348
     44          6           0        3.412852   -3.177249   -1.236455
     45          1           0        2.262232   -1.492570   -1.398563
     46          7           0        3.205466   -1.812621   -1.229440
     47          8           0        3.863555    0.351704   -1.029921
     48          6           0        4.143912   -0.834002   -1.016896
     49          1           0        6.745674   -2.894906   -0.590644
     50          6           0        5.702938   -2.644339   -0.781124
     51          6           0        6.461585   -0.287906   -0.555847
     52          7           0        5.424699   -1.297161   -0.788240
     53          1           0        3.380668    3.925977    2.934184
     54          1           0        2.277425    3.917823    1.732156
     55          1           0        3.869551    3.850982    1.378935
     56          1           0        1.051577   -3.006753    1.677969
     57          1           0        2.646365   -2.641601    2.161098
     58          7           0        1.748785   -2.314272    1.863742
     59          6           0        1.493951   -1.011959    1.721588
     60          6           0        2.026090    1.306534    1.777924
     61          7           0        0.811536    1.717164    1.377100
     62          1           0       -0.999992    0.918685    0.846627
     63          6           0        0.009199    0.673918    1.175077
     64          7           0        0.262563   -0.631168    1.316909
     65          1           0        5.103656    1.575300    2.731072
     66          6           0        4.115437    1.219792    2.437867
     67          7           0        3.761893   -0.041202    2.387099
     68          6           0        2.439350   -0.000312    1.970034
     69          6           0        3.164404    3.563971    2.027442
     70          7           0        3.114049    2.090030    2.082005
 ---------------------------------------------------------------------

 SCF Done:  E(RwB97XD) =  -2048.72338009     A.U. after   15 cycles

 The electronic state is 1-A.
 Alpha  occ. eigenvalues --  -19.25928 -19.22089 -19.20607 -14.52480 -14.51774
 Alpha  occ. eigenvalues --  -14.49160 -14.48737 -14.47964 -14.47034 -14.46896
 Alpha  occ. eigenvalues --  -14.46576 -14.44676 -14.43124 -14.42713 -14.42538
 Alpha  occ. eigenvalues --  -14.41967 -14.41837 -14.41344 -14.40735 -14.40536
 Alpha  occ. eigenvalues --  -10.45563 -10.41311 -10.40208 -10.38823 -10.38214
 Alpha  occ. eigenvalues --  -10.37867 -10.37290 -10.36123 -10.35797 -10.35367
 Alpha  occ. eigenvalues --  -10.34492 -10.34446 -10.34363 -10.33787 -10.33630
 Alpha  occ. eigenvalues --  -10.33526 -10.33211 -10.31710 -10.31267 -10.31159
 Alpha  occ. eigenvalues --  -10.30812 -10.28961 -10.28143  -1.19491  -1.14458
 Alpha  occ. eigenvalues --   -1.13267  -1.13104  -1.11756  -1.10576  -1.09371
 Alpha  occ. eigenvalues --   -1.08749  -1.08127  -1.05374  -1.03702  -1.02579
 Alpha  occ. eigenvalues --   -1.00820  -1.00553  -0.99783  -0.98509  -0.97348
 Alpha  occ. eigenvalues --   -0.96540  -0.95733  -0.93024  -0.91115  -0.86879
 Alpha  occ. eigenvalues --   -0.85398  -0.84330  -0.84131  -0.83736  -0.82682
 Alpha  occ. eigenvalues --   -0.82498  -0.78938  -0.76134  -0.74711  -0.73907
 Alpha  occ. eigenvalues --   -0.73741  -0.73435  -0.73291  -0.71468  -0.69558
 Alpha  occ. eigenvalues --   -0.67563  -0.66687  -0.66624  -0.65906  -0.64522
 Alpha  occ. eigenvalues --   -0.63825  -0.63471  -0.63048  -0.62772  -0.62091
 Alpha  occ. eigenvalues --   -0.60586  -0.59927  -0.59744  -0.59562  -0.59410
 Alpha  occ. eigenvalues --   -0.58746  -0.58505  -0.56983  -0.56807  -0.56718
 Alpha  occ. eigenvalues --   -0.56016  -0.55754  -0.55328  -0.54603  -0.54396
 Alpha  occ. eigenvalues --   -0.53698  -0.53465  -0.53076  -0.52912  -0.52564
 Alpha  occ. eigenvalues --   -0.52361  -0.52092  -0.51979  -0.51126  -0.50558
 Alpha  occ. eigenvalues --   -0.50164  -0.49537  -0.49475  -0.48952  -0.48806
 Alpha  occ. eigenvalues --   -0.48684  -0.48276  -0.48018  -0.47858  -0.47430
 Alpha  occ. eigenvalues --   -0.47353  -0.45577  -0.45416  -0.44075  -0.42954
 Alpha  occ. eigenvalues --   -0.41587  -0.39706  -0.39477  -0.37610  -0.37461
 Alpha  occ. eigenvalues --   -0.37228  -0.36711  -0.36599  -0.35851  -0.34671
 Alpha  occ. eigenvalues --   -0.33963  -0.33835  -0.33305  -0.33253  -0.32919
 Alpha  occ. eigenvalues --   -0.32657  -0.32328  -0.32024  -0.31832  -0.31316
 Alpha  occ. eigenvalues --   -0.30747  -0.28787  -0.26176  -0.25382
 Alpha virt. eigenvalues --    0.03019   0.04661   0.07477   0.07643   0.08434
 Alpha virt. eigenvalues --    0.09473   0.09546   0.10559   0.11330   0.12168
 Alpha virt. eigenvalues --    0.12772   0.13719   0.14530   0.14556   0.14774

 Mulliken charges:
               1
     1  N   -0.311496
     2  C    0.180809
     3  C    0.035018
     4  N   -0.259163
     5  C    0.134270
     6  H    0.027850
     7  N   -0.286573
     8  C    0.124143
     9  H    0.012129
    10  N   -0.288521
    11  C    0.241650
    12  C    0.123408
    13  N   -0.054846
    14  H    0.108114
    15  H    0.088621
    16  H    0.026255
    17  H    0.034584
    18  H    0.026642
    19  N   -0.308354
    20  C    0.228984
    21  C    0.181264
    22  N   -0.103679
    23  H    0.116353
    24  H    0.114835
    25  N   -0.282301
    26  C    0.203442
    27  N   -0.111394
    28  H    0.118735
    29  C    0.139188
    30  O   -0.318138
    31  C    0.008874
    32  N   -0.220908
    33  C    0.128458
    34  H    0.030118
    35  H    0.028592
    36  H    0.027690
    37  H    0.024545
    38  H    0.061642
    39  H    0.059732
    40  H    0.071393
    41  H    0.031299
    42  C   -0.114224
    43  O   -0.267544
    44  C    0.172889
    45  H    0.136665
    46  N   -0.135985
    47  O   -0.350711
    48  C    0.362356
    49  H    0.048136
    50  C    0.175230
    51  C    0.042293
    52  N   -0.293667
    53  H    0.033985
    54  H    0.041403
    55  H    0.010069
    56  H    0.123944
    57  H    0.115442
    58  N   -0.063524
    59  C    0.110035
    60  C    0.220561
    61  N   -0.257651
    62  H    0.064114
    63  C    0.147402
    64  N   -0.297695
    65  H    0.029223
    66  C    0.131899
    67  N   -0.266428
    68  C    0.027659
    69  C    0.171438
    70  N   -0.310581
 Sum of Mulliken charges =  -0.00000

 Dipole moment (field-independent basis, Debye):
    X=              7.4892    Y=              5.6046    Z=              2.9300  Tot=              9.8023
 Quadrupole moment (field-independent basis, Debye-Ang):
   XX=           -145.6099   YY=           -221.5274   ZZ=           -253.1522
   XY=              5.2734   XZ=             12.4970   YZ=             -9.7548

 Normal termination of Gaussian 16 at Wed Jan 24 06:36:42 2018.
