 Gaussian 16, Revision A.03,
 Gaussian 16:  EM64L-G16RevA.03 25-Dec-2016

 ---------------------------------------
 #p wb97xd/cc-pvdz sp scf=(maxcycles=20)
 ---------------------------------------

 ------------------
 Base pair stacking
 ------------------
 Symbolic Z-matrix:
 Charge =  0 Multiplicity = 1

                         Standard orientation:
 ---------------------------------------------------------------------
 Center     Atomic      Atomic             Coordinates (Angstroms)
 Number     Number       Type             X           Y           Z
 ---------------------------------------------------------------------
      1          7           0       -6.454608   -1.618867    0.537247
      2          6           0       -7.846557   -1.137378    0.630264
      3          6           0       -4.263978   -1.767487    0.665177
      4          7           0       -4.700612   -2.953224    0.092370
      5          6           0       -6.002910   -2.816230    0.038224
      6          1           0       -6.689010   -3.564440   -0.359741
      7          7           0       -2.894566   -0.065040    1.553628
      8          6           0       -4.020115    0.625130    1.764311
      9          1           0       -3.885989    1.606165    2.218022
     10          7           0       -5.280533    0.286990    1.499927
     11          6           0       -5.333759   -0.935098    0.944862
     12          6           0       -2.981642   -1.291380    0.993633
     13          7           0       -1.859224   -1.981864    0.782535
     14          1           0       -1.876307   -2.893524    0.370475
     15          1           0       -0.963477   -1.611631    1.028936
     16          1           0       -8.380153   -1.763903    1.198524
     17          1           0       -7.857995   -0.225651    1.039817
     18          1           0       -8.248671   -1.095153   -0.284347
     19          7           0       -2.891262    2.844032   -1.648696
     20          6           0       -1.559793    2.528604   -1.523204
     21          6           0       -3.464164    4.198343   -1.513342
     22          7           0        1.721227    3.507300   -0.941138
     23          1           0        2.621601    3.076054   -0.890138
     24          1           0        1.682544    4.495812   -0.792603
     25          7           0       -0.559219    3.395892   -1.257315
     26          6           0        0.614855    2.792943   -1.197135
     27          7           0        0.797245    1.443960   -1.382836
     28          1           0        1.731346    1.069396   -1.318625
     29          6           0       -0.217737    0.532769   -1.657440
     30          8           0        0.053965   -0.664842   -1.807925
     31          6           0       -1.484890    1.165731   -1.725157
     32          7           0       -2.743989    0.636211   -1.972451
     33          6           0       -3.544455    1.665982   -1.917345
     34          1           0       -4.623970    1.621985   -2.065663
     35          1           0       -4.127728    4.208207   -0.766078
     36          1           0       -2.732319    4.849359   -1.316262
     37          1           0       -3.918136    4.456710   -2.365376
     38          1           0        6.517227   -0.263725   -0.236565
     39          1           0        6.691521   -0.271647   -1.989905
     40          1           0        5.566185    0.848407   -1.221481
     41          1           0        4.452774   -4.475193   -1.308094
     42          6           0        4.218793   -3.410904   -1.336164
     43          8           0        1.881374   -3.743044   -1.567018
     44          6           0        2.855821   -2.997052   -1.473524
     45          1           0        1.720451   -1.298601   -1.594060
     46          7           0        2.670205   -1.629504   -1.498159
     47          8           0        3.375640    0.528253   -1.437781
     48          6           0        3.638377   -0.661130   -1.406292
     49          1           0        6.237007   -2.752447   -1.138524
     50          6           0        5.185216   -2.489942   -1.244256
     51          6           0        5.995961   -0.141143   -1.174285
     52          7           0        4.927500   -1.139042   -1.275984
     53          1           0        3.873458    3.320360    3.880695
     54          1           0        2.680141    3.591749    2.801606
     55          1           0        4.240950    3.700969    2.336829
     56          1           0        1.641034   -3.099091    0.902016
     57          1           0        3.258312   -2.805907    1.358699
     58          7           0        2.331708   -2.452372    1.225863
     59          6           0        2.031496   -1.175101    1.470030
     60          6           0        2.503685    1.060381    2.134407
     61          7           0        1.250849    1.507322    1.947132
     62          1           0       -0.574444    0.800905    1.338946
     63          6           0        0.463597    0.523377    1.517037
     64          7           0        0.762388   -0.756541    1.271878
     65          1           0        5.638042    1.201972    2.914103
     66          6           0        4.639846    0.894530    2.600991
     67          7           0        4.317558   -0.318811    2.224702
     68          6           0        2.965805   -0.227475    1.926096
     69          6           0        3.596730    3.212830    2.925789
     70          7           0        3.590574    1.780431    2.570512
 ---------------------------------------------------------------------

 SCF Done:  E(RwB97XD) =  -2048.74487978     A.U. after   15 cycles

 The electronic state is 1-A.
 Alpha  occ. eigenvalues --  -19.26103 -19.22614 -19.20794 -14.52735 -14.51743
 Alpha  occ. eigenvalues --  -14.48847 -14.48563 -14.48044 -14.47121 -14.47003
 Alpha  occ. eigenvalues --  -14.46793 -14.44835 -14.43342 -14.43261 -14.42211
 Alpha  occ. eigenvalues --  -14.41843 -14.41180 -14.40891 -14.40672 -14.39908
 Alpha  occ. eigenvalues --  -10.45746 -10.41436 -10.40692 -10.38869 -10.38388
 Alpha  occ. eigenvalues --  -10.38266 -10.37352 -10.36331 -10.35316 -10.35116
 Alpha  occ. eigenvalues --  -10.34818 -10.34476 -10.33853 -10.33421 -10.33335
 Alpha  occ. eigenvalues --  -10.33115 -10.32858 -10.31812 -10.31494 -10.30934
 Alpha  occ. eigenvalues --  -10.30852 -10.28258 -10.28233  -1.19692  -1.14433
 Alpha  occ. eigenvalues --   -1.13640  -1.13379  -1.11122  -1.10690  -1.09622
 Alpha  occ. eigenvalues --   -1.08758  -1.08259  -1.04711  -1.03845  -1.02807
 Alpha  occ. eigenvalues --   -1.00226  -1.00133  -1.00007  -0.98698  -0.96735
 Alpha  occ. eigenvalues --   -0.96666  -0.95825  -0.92360  -0.91445  -0.86837
 Alpha  occ. eigenvalues --   -0.85238  -0.84218  -0.83832  -0.83729  -0.82581
 Alpha  occ. eigenvalues --   -0.82111  -0.79233  -0.76166  -0.74759  -0.73902
 Alpha  occ. eigenvalues --   -0.73873  -0.73670  -0.72644  -0.70807  -0.69551
 Alpha  occ. eigenvalues --   -0.67581  -0.66863  -0.66044  -0.65881  -0.64735
 Alpha  occ. eigenvalues --   -0.63953  -0.63375  -0.62852  -0.62434  -0.61935
 Alpha  occ. eigenvalues --   -0.60084  -0.60006  -0.59805  -0.59649  -0.59014
 Alpha  occ. eigenvalues --   -0.58698  -0.58616  -0.56701  -0.56306  -0.56235
 Alpha  occ. eigenvalues --   -0.56209  -0.55145  -0.54755  -0.54669  -0.54454
 Alpha  occ. eigenvalues --   -0.53844  -0.53680  -0.53119  -0.52943  -0.52794
 Alpha  occ. eigenvalues --   -0.52636  -0.52015  -0.51575  -0.50531  -0.50371
 Alpha  occ. eigenvalues --   -0.49985  -0.49756  -0.49221  -0.49170  -0.49118
 Alpha  occ. eigenvalues --   -0.48514  -0.48442  -0.48067  -0.47756  -0.47606
 Alpha  occ. eigenvalues --   -0.46731  -0.45650  -0.44801  -0.44475  -0.43639
 Alpha  occ. eigenvalues --   -0.40888  -0.39939  -0.39673  -0.37431  -0.37389
 Alpha  occ. eigenvalues --   -0.37055  -0.36926  -0.36684  -0.35953  -0.34364
 Alpha  occ. eigenvalues --   -0.33985  -0.33784  -0.33414  -0.33216  -0.33126
 Alpha  occ. eigenvalues --   -0.32794  -0.32536  -0.32389  -0.31936  -0.30681
 Alpha  occ. eigenvalues --   -0.30150  -0.29088  -0.25644  -0.25420
 Alpha virt. eigenvalues --    0.02447   0.04933   0.07325   0.08240   0.08786
 Alpha virt. eigenvalues --    0.09047   0.09568   0.11202   0.11398   0.11829
 Alpha virt. eigenvalues --    0.12690   0.14212   0.14700   0.14813   0.15280

 Mulliken charges:
               1
     1  N   -0.311675
     2  C    0.180813
     3  C    0.043178
     4  N   -0.258116
     5  C    0.132837
     6  H    0.025435
     7  N   -0.293911
     8  C    0.133379
     9  H    0.009267
    10  N   -0.292456
    11  C    0.239753
    12  C    0.119708
    13  N   -0.050500
    14  H    0.111544
    15  H    0.091405
    16  H    0.025242
    17  H    0.033382
    18  H    0.024716
    19  N   -0.312323
    20  C    0.250275
    21  C    0.180827
    22  N   -0.120048
    23  H    0.113618
    24  H    0.116562
    25  N   -0.307533
    26  C    0.242476
    27  N   -0.138850
    28  H    0.114473
    29  C    0.171595
    30  O   -0.321086
    31  C    0.000728
    32  N   -0.225394
    33  C    0.131567
    34  H    0.027401
    35  H    0.030691
    36  H    0.028302
    37  H    0.024484
    38  H    0.063523
    39  H    0.058956
    40  H    0.072484
    41  H    0.030839
    42  C   -0.113198
    43  O   -0.271543
    44  C    0.141259
    45  H    0.136367
    46  N   -0.113682
    47  O   -0.348032
    48  C    0.351156
    49  H    0.050449
    50  C    0.177017
    51  C    0.041526
    52  N   -0.285883
    53  H    0.033116
    54  H    0.042714
    55  H    0.022356
    56  H    0.129171
    57  H    0.112005
    58  N   -0.055548
    59  C    0.086956
    60  C    0.240511
    61  N   -0.267487
    62  H    0.040064
    63  C    0.167303
    64  N   -0.300221
    65  H    0.031752
    66  C    0.134524
    67  N   -0.267617
    68  C    0.021490
    69  C    0.178851
    70  N   -0.312940
 Sum of Mulliken charges =  -0.00000

 Dipole moment (field-independent basis, Debye):
    X=              8.4148    Y=              6.0749    Z=              1.5505  Tot=             10.4937
 Quadrupole moment (field-independent basis, Debye-Ang):
   XX=           -149.6792   YY=           -219.2213   ZZ=           -251.1216
   XY=              1.2997   XZ=              7.6300   YZ=             -4.1648

 Normal termination of Gaussian 16 at Tue Jan 23 20:56:52 2018.
