 Gaussian 16, Revision A.03,
 Gaussian 16:  EM64L-G16RevA.03 25-Dec-2016

 ---------------------------------------
 #p wb97xd/cc-pvdz sp scf=(maxcycles=20)
 ---------------------------------------

 ------------------
 Base pair stacking
 ------------------
 Symbolic Z-matrix:
 Charge =  0 Multiplicity = 1

                         Standard orientation:
 ---------------------------------------------------------------------
 Center     Atomic      Atomic             Coordinates (Angstroms)
 Number     Number       Type             X           Y           Z
 ---------------------------------------------------------------------
      1          7           0        5.510141   -1.687754   -1.237114
      2          6           0        6.903720   -1.203084   -1.205153
      3          6           0        3.314518   -1.783429   -1.323099
      4          7           0        3.756976   -3.095359   -1.234763
      5          6           0        5.062052   -2.985209   -1.186497
      6          1           0        5.752880   -3.825619   -1.112999
      7          7           0        1.934846    0.122929   -1.482024
      8          6           0        3.060518    0.844300   -1.473806
      9          1           0        2.922160    1.922772   -1.537082
     10          7           0        4.325501    0.435393   -1.399515
     11          6           0        4.383722   -0.904600   -1.325625
     12          6           0        2.027024   -1.222756   -1.406422
     13          7           0        0.904479   -1.944555   -1.414488
     14          1           0        0.925237   -2.943482   -1.360339
     15          1           0        0.004988   -1.511664   -1.474899
     16          1           0        7.407485   -1.581235   -1.981942
     17          1           0        6.911572   -0.204961   -1.258074
     18          1           0        7.340380   -1.493477   -0.353687
     19          7           0        3.993940    2.467319    1.280943
     20          6           0        2.645236    2.211083    1.222666
     21          6           0        4.629910    3.765879    0.980971
     22          7           0       -0.598055    3.291975    0.610699
     23          1           0       -1.520030    2.906172    0.629422
     24          1           0       -0.514139    4.254430    0.351165
     25          7           0        1.682147    3.095398    0.884314
     26          6           0        0.478052    2.552710    0.919565
     27          7           0        0.233659    1.244279    1.259876
     28          1           0       -0.719530    0.915047    1.259885
     29          6           0        1.209187    0.316601    1.611480
     30          8           0        0.882201   -0.840763    1.901861
     31          6           0        2.507932    0.884971    1.578170
     32          7           0        3.745525    0.320052    1.854086
     33          6           0        4.594720    1.293359    1.665020
     34          1           0        5.674505    1.208830    1.792218
     35          1           0        5.271171    3.657466    0.222124
     36          1           0        3.926241    4.428939    0.729051
     37          1           0        5.120817    4.092769    1.787802
     38          1           0       -5.595676   -0.273866    0.445987
     39          1           0       -5.719175   -0.077815    2.192690
     40          1           0       -4.561832    0.888637    1.277322
     41          1           0       -3.714932   -4.443998    1.935740
     42          6           0       -3.427119   -3.397120    1.838584
     43          8           0       -1.103599   -3.825255    2.050919
     44          6           0       -2.041684   -3.043557    1.896861
     45          1           0       -0.819491   -1.404941    1.799351
     46          7           0       -1.787038   -1.693529    1.763338
     47          8           0       -2.384753    0.478587    1.477273
     48          6           0       -2.707661   -0.691300    1.585753
     49          1           0       -5.414634   -2.658425    1.615147
     50          6           0       -4.348366   -2.442034    1.666245
     51          6           0       -5.041911   -0.075794    1.351631
     52          7           0       -4.022372   -1.111564    1.539968
     53          1           0       -4.871413    4.110137   -2.159766
     54          1           0       -3.635045    3.975210   -1.103692
     55          1           0       -5.175777    3.906826   -0.569334
     56          1           0       -2.611933   -2.948458   -1.790340
     57          1           0       -4.241280   -2.512537   -2.045877
     58          7           0       -3.305851   -2.229470   -1.831229
     59          6           0       -2.998536   -0.949788   -1.609548
     60          6           0       -3.466396    1.374024   -1.402848
     61          7           0       -2.201748    1.725034   -1.116689
     62          1           0       -0.364206    0.849366   -0.877419
     63          6           0       -1.411698    0.653349   -1.102375
     64          7           0       -1.717595   -0.629163   -1.324149
     65          1           0       -6.625710    1.782981   -1.953918
     66          6           0       -5.620533    1.384701   -1.812743
     67          7           0       -5.300046    0.117840   -1.912944
     68          6           0       -3.936986    0.097181   -1.655341
     69          6           0       -4.560459    3.665359   -1.319838
     70          7           0       -4.559492    2.201357   -1.506149
 ---------------------------------------------------------------------

 SCF Done:  E(RwB97XD) =  -2048.74335053     A.U. after   15 cycles

 The electronic state is 1-A.
 Alpha  occ. eigenvalues --  -19.25386 -19.21592 -19.20321 -14.52940 -14.52050
 Alpha  occ. eigenvalues --  -14.48712 -14.48558 -14.48313 -14.47423 -14.46415
 Alpha  occ. eigenvalues --  -14.45880 -14.45523 -14.44626 -14.44561 -14.42557
 Alpha  occ. eigenvalues --  -14.41541 -14.41219 -14.40904 -14.40453 -14.40233
 Alpha  occ. eigenvalues --  -10.45023 -10.40671 -10.40399 -10.39720 -10.38412
 Alpha  occ. eigenvalues --  -10.37862 -10.37599 -10.37496 -10.36030 -10.35503
 Alpha  occ. eigenvalues --  -10.34456 -10.34447 -10.33901 -10.33856 -10.33214
 Alpha  occ. eigenvalues --  -10.33024 -10.33000 -10.32946 -10.30849 -10.30802
 Alpha  occ. eigenvalues --  -10.30545 -10.28403 -10.27636  -1.19095  -1.15633
 Alpha  occ. eigenvalues --   -1.12808  -1.12623  -1.11142  -1.10181  -1.09687
 Alpha  occ. eigenvalues --   -1.08946  -1.08065  -1.05247  -1.05033  -1.02064
 Alpha  occ. eigenvalues --   -1.01446  -1.00520  -0.99025  -0.98155  -0.97258
 Alpha  occ. eigenvalues --   -0.96812  -0.96178  -0.92733  -0.90706  -0.88068
 Alpha  occ. eigenvalues --   -0.86390  -0.83832  -0.83629  -0.83140  -0.82224
 Alpha  occ. eigenvalues --   -0.82093  -0.78524  -0.77445  -0.75359  -0.74167
 Alpha  occ. eigenvalues --   -0.73122  -0.72929  -0.72896  -0.71043  -0.70848
 Alpha  occ. eigenvalues --   -0.67307  -0.66807  -0.66317  -0.66117  -0.64745
 Alpha  occ. eigenvalues --   -0.64086  -0.63395  -0.62756  -0.62448  -0.61191
 Alpha  occ. eigenvalues --   -0.60933  -0.60709  -0.60620  -0.59786  -0.59262
 Alpha  occ. eigenvalues --   -0.59029  -0.57730  -0.56856  -0.56376  -0.56040
 Alpha  occ. eigenvalues --   -0.55828  -0.55715  -0.55518  -0.54492  -0.54368
 Alpha  occ. eigenvalues --   -0.53790  -0.53629  -0.53292  -0.53238  -0.52852
 Alpha  occ. eigenvalues --   -0.52519  -0.51982  -0.51704  -0.50740  -0.50119
 Alpha  occ. eigenvalues --   -0.50054  -0.49723  -0.49515  -0.48986  -0.48896
 Alpha  occ. eigenvalues --   -0.48423  -0.48080  -0.47905  -0.47174  -0.47005
 Alpha  occ. eigenvalues --   -0.46803  -0.45636  -0.44946  -0.44436  -0.43506
 Alpha  occ. eigenvalues --   -0.41334  -0.40903  -0.39173  -0.38082  -0.37962
 Alpha  occ. eigenvalues --   -0.37434  -0.36896  -0.36614  -0.35684  -0.34956
 Alpha  occ. eigenvalues --   -0.34779  -0.33553  -0.33457  -0.32968  -0.32777
 Alpha  occ. eigenvalues --   -0.32325  -0.32091  -0.31873  -0.31549  -0.30809
 Alpha  occ. eigenvalues --   -0.30475  -0.30104  -0.25809  -0.24757
 Alpha virt. eigenvalues --    0.03049   0.03893   0.06492   0.07899   0.08977
 Alpha virt. eigenvalues --    0.09468   0.09852   0.10285   0.11261   0.12059
 Alpha virt. eigenvalues --    0.12401   0.14043   0.14489   0.14888   0.15231

 Mulliken charges:
               1
     1  N   -0.313787
     2  C    0.181710
     3  C    0.054390
     4  N   -0.261943
     5  C    0.138376
     6  H    0.026384
     7  N   -0.293124
     8  C    0.139745
     9  H    0.011018
    10  N   -0.285629
    11  C    0.260179
    12  C    0.102342
    13  N   -0.057189
    14  H    0.108370
    15  H    0.082083
    16  H    0.024256
    17  H    0.029450
    18  H    0.028224
    19  N   -0.293373
    20  C    0.219351
    21  C    0.180551
    22  N   -0.089552
    23  H    0.110874
    24  H    0.110185
    25  N   -0.301333
    26  C    0.209518
    27  N   -0.145803
    28  H    0.121554
    29  C    0.185157
    30  O   -0.323970
    31  C   -0.009148
    32  N   -0.222467
    33  C    0.131929
    34  H    0.016422
    35  H    0.028882
    36  H    0.027042
    37  H    0.022922
    38  H    0.063128
    39  H    0.057508
    40  H    0.069679
    41  H    0.028288
    42  C   -0.113352
    43  O   -0.264079
    44  C    0.174330
    45  H    0.131313
    46  N   -0.123735
    47  O   -0.336468
    48  C    0.333844
    49  H    0.045285
    50  C    0.165221
    51  C    0.037653
    52  N   -0.282284
    53  H    0.036602
    54  H    0.034885
    55  H    0.030985
    56  H    0.121716
    57  H    0.117409
    58  N   -0.058961
    59  C    0.089468
    60  C    0.258957
    61  N   -0.284517
    62  H    0.056391
    63  C    0.153363
    64  N   -0.300183
    65  H    0.038675
    66  C    0.133088
    67  N   -0.259110
    68  C    0.017235
    69  C    0.181242
    70  N   -0.307174
 Sum of Mulliken charges =  -0.00000

 Dipole moment (field-independent basis, Debye):
    X=             -8.1204    Y=              6.1087    Z=             -3.0372  Tot=             10.6057
 Quadrupole moment (field-independent basis, Debye-Ang):
   XX=           -154.7176   YY=           -220.9141   ZZ=           -256.0109
   XY=              0.1488   XZ=             -4.4674   YZ=             11.3178

 Normal termination of Gaussian 16 at Tue Jan 23 19:59:10 2018.
