 Gaussian 16, Revision A.03,
 Gaussian 16:  EM64L-G16RevA.03 25-Dec-2016

 ---------------------------------------
 #p wb97xd/cc-pvdz sp scf=(maxcycles=20)
 ---------------------------------------

 ------------------
 Base pair stacking
 ------------------
 Symbolic Z-matrix:
 Charge =  0 Multiplicity = 1

                         Standard orientation:
 ---------------------------------------------------------------------
 Center     Atomic      Atomic             Coordinates (Angstroms)
 Number     Number       Type             X           Y           Z
 ---------------------------------------------------------------------
      1          7           0       -7.130455   -1.437515    0.173070
      2          6           0       -8.486127   -0.914773   -0.085582
      3          6           0       -4.977416   -1.592567    0.594579
      4          7           0       -5.445472   -2.893692    0.481751
      5          6           0       -6.723870   -2.748197    0.232324
      6          1           0       -7.423645   -3.570691    0.081455
      7          7           0       -3.574012    0.278192    0.900637
      8          6           0       -4.660593    1.030596    0.698621
      9          1           0       -4.497075    2.106273    0.747910
     10          7           0       -5.912954    0.655490    0.446054
     11          6           0       -6.004514   -0.684101    0.406755
     12          6           0       -3.699055   -1.066179    0.854669
     13          7           0       -2.615555   -1.818928    1.056073
     14          1           0       -2.661577   -2.818175    1.031139
     15          1           0       -1.721384   -1.409962    1.238646
     16          1           0       -9.113759   -1.249806    0.617277
     17          1           0       -8.468211    0.084434   -0.066181
     18          1           0       -8.798897   -1.223476   -0.983845
     19          7           0       -2.188544    2.484518   -1.677842
     20          6           0       -0.873482    2.192201   -1.407268
     21          6           0       -2.818340    3.810766   -1.519342
     22          7           0        2.274973    3.201763   -0.344355
     23          1           0        3.175687    2.789385   -0.210552
     24          1           0        2.185372    4.175049   -0.131268
     25          7           0        0.056813    3.060452   -0.954790
     26          6           0        1.233470    2.482710   -0.789473
     27          7           0        1.482137    1.156306   -1.047006
     28          1           0        2.412767    0.800237   -0.891759
     29          6           0        0.540080    0.244617   -1.513078
     30          8           0        0.867906   -0.931439   -1.713534
     31          6           0       -0.728909    0.850631   -1.695511
     32          7           0       -1.929065    0.311548   -2.138140
     33          6           0       -2.763750    1.314933   -2.111269
     34          1           0       -3.814240    1.256656   -2.398263
     35          1           0       -3.570000    3.748443   -0.863654
     36          1           0       -2.138766    4.462236   -1.184633
     37          1           0       -3.170621    4.121860   -2.401348
     38          1           0        7.067458   -0.496799    0.690729
     39          1           0        7.459551   -0.368214   -1.022277
     40          1           0        6.210637    0.663624   -0.324481
     41          1           0        5.293405   -4.663169   -0.934283
     42          6           0        5.029698   -3.605659   -0.915259
     43          8           0        2.751693   -3.974806   -1.464393
     44          6           0        3.681628   -3.215074   -1.194503
     45          1           0        2.514663   -1.539809   -1.335859
     46          7           0        3.455416   -1.854362   -1.144144
     47          8           0        4.076060    0.308809   -0.839712
     48          6           0        4.371985   -0.872987   -0.860681
     49          1           0        6.984532   -2.916286   -0.416065
     50          6           0        5.946093   -2.671584   -0.635382
     51          6           0        6.663639   -0.316186   -0.294346
     52          7           0        5.649833   -1.328636   -0.602393
     53          1           0        3.182681    4.091714    2.477493
     54          1           0        2.115915    3.953664    1.250687
     55          1           0        3.716427    3.821897    0.959025
     56          1           0        0.768058   -2.908339    1.993404
     57          1           0        2.353984   -2.510044    2.479511
     58          7           0        1.471718   -2.208432    2.116381
     59          6           0        1.244685   -0.929446    1.810077
     60          6           0        1.816460    1.370985    1.603177
     61          7           0        0.622008    1.747249    1.117235
     62          1           0       -1.186894    0.916212    0.629532
     63          6           0       -0.192531    0.698735    1.017105
     64          7           0        0.032992   -0.583033    1.323376
     65          1           0        4.868474    1.709506    2.614506
     66          6           0        3.883236    1.335171    2.335003
     67          7           0        3.508771    0.082469    2.425516
     68          6           0        2.200251    0.091311    1.964633
     69          6           0        2.987162    3.625627    1.614624
     70          7           0        2.908737    2.170022    1.845009
 ---------------------------------------------------------------------

 SCF Done:  E(RwB97XD) =  -2048.60577324     A.U. after   15 cycles

 The electronic state is 1-A.
 Alpha  occ. eigenvalues --  -19.25938 -19.21967 -19.20425 -14.52476 -14.51957
 Alpha  occ. eigenvalues --  -14.49433 -14.48660 -14.47909 -14.47208 -14.46366
 Alpha  occ. eigenvalues --  -14.45986 -14.44693 -14.43221 -14.42889 -14.42537
 Alpha  occ. eigenvalues --  -14.42131 -14.41676 -14.41348 -14.40876 -14.40693
 Alpha  occ. eigenvalues --  -10.45556 -10.41358 -10.40097 -10.38959 -10.38043
 Alpha  occ. eigenvalues --  -10.37798 -10.37352 -10.36138 -10.36137 -10.35449
 Alpha  occ. eigenvalues --  -10.34781 -10.34425 -10.34244 -10.34097 -10.33882
 Alpha  occ. eigenvalues --  -10.33319 -10.33282 -10.31796 -10.31455 -10.31102
 Alpha  occ. eigenvalues --  -10.30790 -10.29290 -10.28114  -1.19492  -1.15242
 Alpha  occ. eigenvalues --   -1.13205  -1.13001  -1.12046  -1.10538  -1.09365
 Alpha  occ. eigenvalues --   -1.09303  -1.08375  -1.05717  -1.03871  -1.02663
 Alpha  occ. eigenvalues --   -1.02449  -1.01157  -0.99280  -0.98384  -0.97634
 Alpha  occ. eigenvalues --   -0.96515  -0.95987  -0.93368  -0.91072  -0.87785
 Alpha  occ. eigenvalues --   -0.86077  -0.84617  -0.83850  -0.83760  -0.82947
 Alpha  occ. eigenvalues --   -0.82461  -0.78903  -0.76425  -0.74843  -0.74354
 Alpha  occ. eigenvalues --   -0.74037  -0.73613  -0.73397  -0.71799  -0.69902
 Alpha  occ. eigenvalues --   -0.68444  -0.66995  -0.66730  -0.66365  -0.64735
 Alpha  occ. eigenvalues --   -0.64366  -0.63879  -0.63415  -0.63035  -0.62754
 Alpha  occ. eigenvalues --   -0.60961  -0.60661  -0.60182  -0.59703  -0.59522
 Alpha  occ. eigenvalues --   -0.59212  -0.58732  -0.57205  -0.56965  -0.56802
 Alpha  occ. eigenvalues --   -0.56141  -0.55854  -0.55296  -0.54496  -0.54142
 Alpha  occ. eigenvalues --   -0.53769  -0.53399  -0.53140  -0.52630  -0.52549
 Alpha  occ. eigenvalues --   -0.52356  -0.52317  -0.52009  -0.51401  -0.50836
 Alpha  occ. eigenvalues --   -0.50062  -0.49780  -0.49451  -0.49245  -0.48758
 Alpha  occ. eigenvalues --   -0.48509  -0.48256  -0.47978  -0.47684  -0.47585
 Alpha  occ. eigenvalues --   -0.47322  -0.45734  -0.45386  -0.44018  -0.42397
 Alpha  occ. eigenvalues --   -0.41918  -0.39569  -0.39286  -0.37918  -0.37585
 Alpha  occ. eigenvalues --   -0.37086  -0.36710  -0.36314  -0.35787  -0.35047
 Alpha  occ. eigenvalues --   -0.34243  -0.34143  -0.33207  -0.33093  -0.32685
 Alpha  occ. eigenvalues --   -0.32403  -0.31983  -0.31864  -0.31727  -0.31583
 Alpha  occ. eigenvalues --   -0.31088  -0.28753  -0.26517  -0.24592
 Alpha virt. eigenvalues --    0.03122   0.04224   0.07120   0.07378   0.08280
 Alpha virt. eigenvalues --    0.09304   0.09768   0.10214   0.10865   0.12505
 Alpha virt. eigenvalues --    0.12704   0.13560   0.14000   0.14350   0.14941

 Mulliken charges:
               1
     1  N   -0.311743
     2  C    0.180821
     3  C    0.033301
     4  N   -0.259622
     5  C    0.135263
     6  H    0.028930
     7  N   -0.283938
     8  C    0.120169
     9  H    0.013018
    10  N   -0.285956
    11  C    0.243287
    12  C    0.122053
    13  N   -0.056362
    14  H    0.107303
    15  H    0.088385
    16  H    0.026672
    17  H    0.035317
    18  H    0.027452
    19  N   -0.304766
    20  C    0.212594
    21  C    0.184406
    22  N   -0.082805
    23  H    0.120689
    24  H    0.101568
    25  N   -0.250777
    26  C    0.154870
    27  N   -0.094847
    28  H    0.119822
    29  C    0.140072
    30  O   -0.320902
    31  C   -0.001732
    32  N   -0.218401
    33  C    0.128877
    34  H    0.031369
    35  H    0.022601
    36  H    0.027356
    37  H    0.024925
    38  H    0.061153
    39  H    0.060353
    40  H    0.070065
    41  H    0.031770
    42  C   -0.112134
    43  O   -0.265257
    44  C    0.178824
    45  H    0.134942
    46  N   -0.139636
    47  O   -0.350694
    48  C    0.366815
    49  H    0.047708
    50  C    0.173085
    51  C    0.042766
    52  N   -0.296557
    53  H    0.006717
    54  H    0.040224
    55  H   -0.016917
    56  H    0.121253
    57  H    0.116598
    58  N   -0.066647
    59  C    0.118652
    60  C    0.217926
    61  N   -0.258678
    62  H    0.067047
    63  C    0.152837
    64  N   -0.298053
    65  H    0.029047
    66  C    0.131159
    67  N   -0.263465
    68  C    0.029436
    69  C    0.229789
    70  N   -0.319399
 Sum of Mulliken charges =  -0.00000

 Dipole moment (field-independent basis, Debye):
    X=              6.9279    Y=              5.3243    Z=              3.6264  Tot=              9.4602
 Quadrupole moment (field-independent basis, Debye-Ang):
   XX=           -143.7243   YY=           -223.7742   ZZ=           -254.3515
   XY=              6.7509   XZ=             14.0951   YZ=            -12.3408

 Normal termination of Gaussian 16 at Tue Jan 23 22:51:58 2018.
