 Gaussian 16, Revision A.03,
 Gaussian 16:  EM64L-G16RevA.03 25-Dec-2016

 ---------------------------------------
 #p wb97xd/cc-pvdz sp scf=(maxcycles=20)
 ---------------------------------------

 ------------------
 Base pair stacking
 ------------------
 Symbolic Z-matrix:
 Charge =  0 Multiplicity = 1

                         Standard orientation:
 ---------------------------------------------------------------------
 Center     Atomic      Atomic             Coordinates (Angstroms)
 Number     Number       Type             X           Y           Z
 ---------------------------------------------------------------------
      1          7           0       -6.974487   -1.476354    0.198914
      2          6           0       -8.361635   -0.972644    0.209054
      3          6           0       -4.794549   -1.649842    0.433613
      4          7           0       -5.222796   -2.850782   -0.113265
      5          6           0       -6.518989   -2.698198   -0.232773
      6          1           0       -7.197657   -3.451815   -0.633304
      7          7           0       -3.441055    0.066831    1.319068
      8          6           0       -4.564271    0.779959    1.451050
      9          1           0       -4.435904    1.775893    1.872837
     10          7           0       -5.816360    0.449110    1.141690
     11          6           0       -5.863019   -0.792705    0.631644
     12          6           0       -3.521378   -1.178954    0.802695
     13          7           0       -2.401267   -1.892366    0.670165
     14          1           0       -2.413566   -2.818983    0.292732
     15          1           0       -1.512109   -1.525153    0.943482
     16          1           0       -8.930249   -1.569361    0.775441
     17          1           0       -8.377705   -0.045676    0.582665
     18          1           0       -8.720828   -0.960360   -0.724134
     19          7           0       -2.278219    2.784379   -1.784691
     20          6           0       -0.958901    2.455863   -1.585837
     21          6           0       -2.835736    4.150618   -1.727597
     22          7           0        2.306803    3.411414   -0.890252
     23          1           0        3.197139    2.970208   -0.781287
     24          1           0        2.276631    4.405380   -0.781374
     25          7           0        0.041740    3.319044   -1.307115
     26          6           0        1.202390    2.702884   -1.169793
     27          7           0        1.372233    1.345357   -1.295422
     28          1           0        2.296530    0.960826   -1.173856
     29          6           0        0.356918    0.438178   -1.581831
     30          8           0        0.616697   -0.767961   -1.673914
     31          6           0       -0.895894    1.085307   -1.732124
     32          7           0       -2.150399    0.563873   -2.017083
     33          6           0       -2.936557    1.605850   -2.038277
     34          1           0       -4.008715    1.570907   -2.234586
     35          1           0       -3.532528    4.198467   -1.012758
     36          1           0       -2.103701    4.798708   -1.521785
     37          1           0       -3.246249    4.381993   -2.608940
     38          1           0        7.006807   -0.394709    0.178379
     39          1           0        7.260910   -0.472872   -1.563459
     40          1           0        6.119054    0.691362   -0.891078
     41          1           0        4.928725   -4.615883   -0.826556
     42          6           0        4.712728   -3.550379   -0.905882
     43          8           0        2.383454   -3.859222   -1.231814
     44          6           0        3.364008   -3.123562   -1.121791
     45          1           0        2.261685   -1.415689   -1.359239
     46          7           0        3.200843   -1.755582   -1.206976
     47          8           0        3.936003    0.393050   -1.196154
     48          6           0        4.178639   -0.797713   -1.107326
     49          1           0        6.729717   -2.912426   -0.640261
     50          6           0        5.688040   -2.639846   -0.804459
     51          6           0        6.530897   -0.301401   -0.786445
     52          7           0        5.452926   -1.287790   -0.899436
     53          1           0        3.264987    3.446935    3.826299
     54          1           0        2.126568    3.692639    2.683608
     55          1           0        3.708487    3.762443    2.287728
     56          1           0        1.072211   -3.051873    0.993859
     57          1           0        2.671259   -2.763367    1.513391
     58          7           0        1.757265   -2.402614    1.324480
     59          6           0        1.465955   -1.112856    1.505736
     60          6           0        1.941738    1.139993    2.105737
     61          7           0        0.705815    1.596443    1.843837
     62          1           0       -1.100460    0.892031    1.179169
     63          6           0       -0.076050    0.607441    1.415519
     64          7           0        0.213844   -0.684981    1.233308
     65          1           0        5.038993    1.268809    3.023652
     66          6           0        4.051524    0.963152    2.676616
     67          7           0        3.728074   -0.259339    2.332245
     68          6           0        2.392962   -0.161157    1.968165
     69          6           0        3.030552    3.306323    2.864384
     70          7           0        3.018541    1.861468    2.563953
 ---------------------------------------------------------------------

 SCF Done:  E(RwB97XD) =  -2048.74507296     A.U. after   15 cycles

 The electronic state is 1-A.
 Alpha  occ. eigenvalues --  -19.26083 -19.22577 -19.20856 -14.52722 -14.51248
 Alpha  occ. eigenvalues --  -14.48922 -14.48884 -14.48210 -14.47323 -14.47210
 Alpha  occ. eigenvalues --  -14.46175 -14.44298 -14.42691 -14.42568 -14.42325
 Alpha  occ. eigenvalues --  -14.42050 -14.41546 -14.40955 -14.40943 -14.40164
 Alpha  occ. eigenvalues --  -10.45761 -10.41588 -10.40635 -10.38497 -10.38217
 Alpha  occ. eigenvalues --  -10.38186 -10.36852 -10.35752 -10.35514 -10.35402
 Alpha  occ. eigenvalues --  -10.34576 -10.34202 -10.34156 -10.33463 -10.33399
 Alpha  occ. eigenvalues --  -10.33134 -10.33037 -10.31438 -10.31250 -10.31060
 Alpha  occ. eigenvalues --  -10.30963 -10.28621 -10.28354  -1.19677  -1.13916
 Alpha  occ. eigenvalues --   -1.13586  -1.13483  -1.11464  -1.10781  -1.09615
 Alpha  occ. eigenvalues --   -1.08918  -1.07574  -1.05000  -1.03189  -1.02840
 Alpha  occ. eigenvalues --   -1.00414  -1.00232  -0.99674  -0.98784  -0.97035
 Alpha  occ. eigenvalues --   -0.96741  -0.95171  -0.92634  -0.91398  -0.86306
 Alpha  occ. eigenvalues --   -0.84749  -0.84317  -0.84032  -0.83938  -0.82654
 Alpha  occ. eigenvalues --   -0.82397  -0.79215  -0.75579  -0.74854  -0.74022
 Alpha  occ. eigenvalues --   -0.73711  -0.73282  -0.72940  -0.71106  -0.68957
 Alpha  occ. eigenvalues --   -0.67722  -0.66880  -0.66332  -0.65314  -0.64771
 Alpha  occ. eigenvalues --   -0.64025  -0.62944  -0.62858  -0.62599  -0.62100
 Alpha  occ. eigenvalues --   -0.60212  -0.59867  -0.59840  -0.59089  -0.58885
 Alpha  occ. eigenvalues --   -0.58672  -0.58201  -0.56785  -0.56525  -0.56498
 Alpha  occ. eigenvalues --   -0.56240  -0.55362  -0.54731  -0.54598  -0.54062
 Alpha  occ. eigenvalues --   -0.53911  -0.53645  -0.53179  -0.52746  -0.52579
 Alpha  occ. eigenvalues --   -0.52257  -0.51796  -0.51499  -0.50820  -0.50434
 Alpha  occ. eigenvalues --   -0.50235  -0.49773  -0.49228  -0.49164  -0.49031
 Alpha  occ. eigenvalues --   -0.48500  -0.48430  -0.47879  -0.47791  -0.47640
 Alpha  occ. eigenvalues --   -0.47013  -0.45402  -0.45132  -0.44423  -0.43107
 Alpha  occ. eigenvalues --   -0.41211  -0.39690  -0.39388  -0.37590  -0.37478
 Alpha  occ. eigenvalues --   -0.37236  -0.36567  -0.36153  -0.35903  -0.34770
 Alpha  occ. eigenvalues --   -0.33733  -0.33633  -0.33559  -0.33061  -0.32932
 Alpha  occ. eigenvalues --   -0.32603  -0.32520  -0.32363  -0.32035  -0.31022
 Alpha  occ. eigenvalues --   -0.30380  -0.28460  -0.25833  -0.25677
 Alpha virt. eigenvalues --    0.02612   0.05335   0.07899   0.07913   0.08460
 Alpha virt. eigenvalues --    0.09340   0.09440   0.10947   0.11524   0.12159
 Alpha virt. eigenvalues --    0.12674   0.13909   0.14562   0.14711   0.15624

 Mulliken charges:
               1
     1  N   -0.310901
     2  C    0.180886
     3  C    0.032104
     4  N   -0.257843
     5  C    0.132507
     6  H    0.026568
     7  N   -0.290426
     8  C    0.129440
     9  H    0.010678
    10  N   -0.290004
    11  C    0.238286
    12  C    0.122917
    13  N   -0.051095
    14  H    0.109353
    15  H    0.090118
    16  H    0.025891
    17  H    0.034705
    18  H    0.025291
    19  N   -0.311219
    20  C    0.246358
    21  C    0.181393
    22  N   -0.124037
    23  H    0.114840
    24  H    0.117354
    25  N   -0.302637
    26  C    0.240396
    27  N   -0.130160
    28  H    0.115346
    29  C    0.162509
    30  O   -0.321378
    31  C   -0.002059
    32  N   -0.222067
    33  C    0.131978
    34  H    0.030645
    35  H    0.030835
    36  H    0.028266
    37  H    0.024820
    38  H    0.062108
    39  H    0.060135
    40  H    0.073121
    41  H    0.031973
    42  C   -0.109970
    43  O   -0.275094
    44  C    0.150855
    45  H    0.137312
    46  N   -0.126749
    47  O   -0.352223
    48  C    0.362917
    49  H    0.049976
    50  C    0.179844
    51  C    0.042459
    52  N   -0.293161
    53  H    0.031373
    54  H    0.043672
    55  H    0.015852
    56  H    0.127922
    57  H    0.113913
    58  N   -0.047719
    59  C    0.098700
    60  C    0.239996
    61  N   -0.264064
    62  H    0.045297
    63  C    0.153362
    64  N   -0.298164
    65  H    0.027694
    66  C    0.130566
    67  N   -0.269722
    68  C    0.019812
    69  C    0.179630
    70  N   -0.311281
 Sum of Mulliken charges =  -0.00000

 Dipole moment (field-independent basis, Debye):
    X=              8.2833    Y=              5.7963    Z=              1.5716  Tot=             10.2313
 Quadrupole moment (field-independent basis, Debye-Ang):
   XX=           -145.2212   YY=           -219.9227   ZZ=           -249.8375
   XY=              3.6463   XZ=             13.0570   YZ=             -5.3093

 Normal termination of Gaussian 16 at Tue Jan 23 22:29:04 2018.
