 Gaussian 16, Revision A.03,
 Gaussian 16:  EM64L-G16RevA.03 25-Dec-2016

 ---------------------------------------
 #p wb97xd/cc-pvdz sp scf=(maxcycles=20)
 ---------------------------------------

 ------------------
 Base pair stacking
 ------------------
 Symbolic Z-matrix:
 Charge =  0 Multiplicity = 1

                         Standard orientation:
 ---------------------------------------------------------------------
 Center     Atomic      Atomic             Coordinates (Angstroms)
 Number     Number       Type             X           Y           Z
 ---------------------------------------------------------------------
      1          7           0        5.207209   -1.730353   -1.420315
      2          6           0        6.604826   -1.256623   -1.435659
      3          6           0        3.009253   -1.808821   -1.432117
      4          7           0        3.444155   -3.124148   -1.358040
      5          6           0        4.750934   -3.024238   -1.353894
      6          1           0        5.437247   -3.870024   -1.303293
      7          7           0        1.639984    0.108264   -1.545461
      8          6           0        2.770902    0.820777   -1.575614
      9          1           0        2.638943    1.900292   -1.634782
     10          7           0        4.034430    0.401978   -1.543822
     11          6           0        4.084614   -0.938409   -1.471201
     12          6           0        1.724116   -1.238077   -1.472261
     13          7           0        0.596314   -1.951058   -1.442048
     14          1           0        0.611064   -2.950101   -1.388080
     15          1           0       -0.301284   -1.511139   -1.472314
     16          1           0        7.079115   -1.638938   -2.228795
     17          1           0        6.618710   -0.258599   -1.489368
     18          1           0        7.067682   -1.550190   -0.599252
     19          7           0        4.305184    2.435308    1.142978
     20          6           0        2.953321    2.189634    1.130388
     21          6           0        4.940829    3.728752    0.821017
     22          7           0       -0.300203    3.295776    0.627603
     23          1           0       -1.224015    2.917225    0.677636
     24          1           0       -0.217557    4.257469    0.364856
     25          7           0        1.986324    3.081391    0.824235
     26          6           0        0.779884    2.548173    0.900403
     27          7           0        0.536876    1.241806    1.249485
     28          1           0       -0.418316    0.920060    1.281826
     29          6           0        1.516418    0.306602    1.568484
     30          8           0        1.190362   -0.848077    1.870369
     31          6           0        2.817707    0.864745    1.491061
     32          7           0        4.059445    0.290209    1.725365
     33          6           0        4.909372    1.256771    1.507227
     34          1           0        5.992145    1.163815    1.597955
     35          1           0        5.555245    3.615085    0.041028
     36          1           0        4.234276    4.397238    0.592609
     37          1           0        5.461225    4.051999    1.610638
     38          1           0       -5.328313   -0.230788    0.633572
     39          1           0       -5.391265   -0.033283    2.383342
     40          1           0       -4.257933    0.923809    1.428920
     41          1           0       -3.431093   -4.415132    2.061317
     42          6           0       -3.138534   -3.370568    1.953939
     43          8           0       -0.812597   -3.816862    2.087990
     44          6           0       -1.749189   -3.027866    1.965230
     45          1           0       -0.518191   -1.398923    1.825647
     46          7           0       -1.488627   -1.679916    1.822448
     47          8           0       -2.078625    0.496745    1.555527
     48          6           0       -2.406840   -0.670544    1.675475
     49          1           0       -5.126604   -2.616360    1.797270
     50          6           0       -4.057559   -2.408324    1.812253
     51          6           0       -4.742769   -0.036808    1.519907
     52          7           0       -3.725601   -1.080489    1.674316
     53          1           0       -5.153836    4.148556   -1.995351
     54          1           0       -3.883631    4.004234   -0.981520
     55          1           0       -5.405940    3.948091   -0.395452
     56          1           0       -2.938533   -2.927445   -1.698486
     57          1           0       -4.572110   -2.478825   -1.899142
     58          7           0       -3.627792   -2.203042   -1.716338
     59          6           0       -3.303149   -0.925751   -1.505854
     60          6           0       -3.745551    1.401719   -1.284764
     61          7           0       -2.469257    1.742877   -1.041632
     62          1           0       -0.631603    0.852886   -0.864016
     63          6           0       -1.687592    0.665030   -1.053393
     64          7           0       -2.010831   -0.615097   -1.264016
     65          1           0       -6.918361    1.835296   -1.729148
     66          6           0       -5.912141    1.429179   -1.621759
     67          7           0       -5.605152    0.159817   -1.732010
     68          6           0       -4.234376    0.128545   -1.520535
     69          6           0       -4.818210    3.701593   -1.166148
     70          7           0       -4.834997    2.237575   -1.351580
 ---------------------------------------------------------------------

 SCF Done:  E(RwB97XD) =  -2048.74731931     A.U. after   15 cycles

 The electronic state is 1-A.
 Alpha  occ. eigenvalues --  -19.25283 -19.21535 -19.20328 -14.52958 -14.52008
 Alpha  occ. eigenvalues --  -14.48839 -14.48460 -14.48410 -14.47351 -14.46451
 Alpha  occ. eigenvalues --  -14.45893 -14.45875 -14.44774 -14.44736 -14.42661
 Alpha  occ. eigenvalues --  -14.41677 -14.41100 -14.40767 -14.40622 -14.40238
 Alpha  occ. eigenvalues --  -10.44954 -10.40826 -10.40522 -10.39661 -10.38467
 Alpha  occ. eigenvalues --  -10.37912 -10.37690 -10.37472 -10.36327 -10.35528
 Alpha  occ. eigenvalues --  -10.34378 -10.34356 -10.34008 -10.33798 -10.33132
 Alpha  occ. eigenvalues --  -10.33117 -10.33070 -10.32911 -10.30771 -10.30688
 Alpha  occ. eigenvalues --  -10.30665 -10.28340 -10.27759  -1.19041  -1.15684
 Alpha  occ. eigenvalues --   -1.12853  -1.12563  -1.11020  -1.10264  -1.09804
 Alpha  occ. eigenvalues --   -1.08910  -1.08154  -1.05351  -1.05030  -1.01998
 Alpha  occ. eigenvalues --   -1.01475  -1.00506  -0.99172  -0.98226  -0.97377
 Alpha  occ. eigenvalues --   -0.96723  -0.96289  -0.92721  -0.90679  -0.88120
 Alpha  occ. eigenvalues --   -0.86382  -0.83836  -0.83656  -0.83100  -0.82216
 Alpha  occ. eigenvalues --   -0.82109  -0.78485  -0.77531  -0.75415  -0.74282
 Alpha  occ. eigenvalues --   -0.73198  -0.72887  -0.72853  -0.71008  -0.70882
 Alpha  occ. eigenvalues --   -0.67378  -0.66914  -0.66268  -0.66090  -0.64798
 Alpha  occ. eigenvalues --   -0.64109  -0.63454  -0.62710  -0.62461  -0.61320
 Alpha  occ. eigenvalues --   -0.60977  -0.60802  -0.60640  -0.59804  -0.59265
 Alpha  occ. eigenvalues --   -0.59004  -0.57802  -0.56826  -0.56358  -0.55913
 Alpha  occ. eigenvalues --   -0.55840  -0.55678  -0.55549  -0.54573  -0.54231
 Alpha  occ. eigenvalues --   -0.53820  -0.53625  -0.53281  -0.53145  -0.52911
 Alpha  occ. eigenvalues --   -0.52628  -0.51979  -0.51608  -0.50615  -0.50247
 Alpha  occ. eigenvalues --   -0.49999  -0.49803  -0.49658  -0.48999  -0.48875
 Alpha  occ. eigenvalues --   -0.48484  -0.48127  -0.47986  -0.47326  -0.47012
 Alpha  occ. eigenvalues --   -0.46791  -0.45711  -0.44958  -0.44299  -0.43418
 Alpha  occ. eigenvalues --   -0.41355  -0.40920  -0.39048  -0.38125  -0.38021
 Alpha  occ. eigenvalues --   -0.37513  -0.37003  -0.36530  -0.35531  -0.35169
 Alpha  occ. eigenvalues --   -0.34902  -0.33745  -0.33399  -0.33119  -0.32737
 Alpha  occ. eigenvalues --   -0.32373  -0.32054  -0.31860  -0.31619  -0.30712
 Alpha  occ. eigenvalues --   -0.30393  -0.30160  -0.25812  -0.25024
 Alpha virt. eigenvalues --    0.02965   0.04060   0.06105   0.08092   0.09225
 Alpha virt. eigenvalues --    0.09404   0.09936   0.10119   0.11098   0.12039
 Alpha virt. eigenvalues --    0.12617   0.14146   0.14554   0.14785   0.15250

 Mulliken charges:
               1
     1  N   -0.312603
     2  C    0.182417
     3  C    0.054694
     4  N   -0.262468
     5  C    0.140391
     6  H    0.026429
     7  N   -0.291114
     8  C    0.132930
     9  H    0.012845
    10  N   -0.282888
    11  C    0.260399
    12  C    0.095638
    13  N   -0.058735
    14  H    0.108944
    15  H    0.080843
    16  H    0.023393
    17  H    0.028756
    18  H    0.028948
    19  N   -0.296245
    20  C    0.227550
    21  C    0.181026
    22  N   -0.102511
    23  H    0.111009
    24  H    0.112744
    25  N   -0.301706
    26  C    0.223445
    27  N   -0.134939
    28  H    0.113584
    29  C    0.186528
    30  O   -0.323320
    31  C   -0.013829
    32  N   -0.223377
    33  C    0.127300
    34  H    0.017171
    35  H    0.028464
    36  H    0.027698
    37  H    0.022868
    38  H    0.063179
    39  H    0.056741
    40  H    0.074252
    41  H    0.027799
    42  C   -0.113956
    43  O   -0.263567
    44  C    0.176391
    45  H    0.131251
    46  N   -0.125177
    47  O   -0.337059
    48  C    0.337268
    49  H    0.044347
    50  C    0.165307
    51  C    0.037148
    52  N   -0.280207
    53  H    0.035920
    54  H    0.036412
    55  H    0.031380
    56  H    0.120414
    57  H    0.117556
    58  N   -0.059344
    59  C    0.094697
    60  C    0.250059
    61  N   -0.276912
    62  H    0.038698
    63  C    0.172955
    64  N   -0.306462
    65  H    0.039562
    66  C    0.133659
    67  N   -0.256696
    68  C    0.007087
    69  C    0.181600
    70  N   -0.306579
 Sum of Mulliken charges =  -0.00000

 Dipole moment (field-independent basis, Debye):
    X=             -8.1719    Y=              6.2554    Z=             -2.6594  Tot=             10.6293
 Quadrupole moment (field-independent basis, Debye-Ang):
   XX=           -156.9219   YY=           -220.5641   ZZ=           -255.5842
   XY=              1.8428   XZ=             -8.3370   YZ=             11.4050

 Normal termination of Gaussian 16 at Tue Jan 23 20:45:34 2018.
