 Gaussian 16, Revision A.03,
 Gaussian 16:  EM64L-G16RevA.03 25-Dec-2016

 ---------------------------------------
 #p wb97xd/cc-pvdz sp scf=(maxcycles=20)
 ---------------------------------------

 ------------------
 Base pair stacking
 ------------------
 Symbolic Z-matrix:
 Charge =  0 Multiplicity = 1

                         Standard orientation:
 ---------------------------------------------------------------------
 Center     Atomic      Atomic             Coordinates (Angstroms)
 Number     Number       Type             X           Y           Z
 ---------------------------------------------------------------------
      1          7           0       -6.134671   -1.644887    0.813092
      2          6           0       -7.523495   -1.145791    0.820895
      3          6           0       -3.944064   -1.780401    0.955193
      4          7           0       -4.390437   -3.050184    0.618843
      5          6           0       -5.692339   -2.917719    0.546698
      6          1           0       -6.384807   -3.723288    0.300770
      7          7           0       -2.560260    0.050521    1.499023
      8          6           0       -3.680871    0.775092    1.581581
      9          1           0       -3.538807    1.823262    1.841211
     10          7           0       -4.944685    0.401027    1.392454
     11          6           0       -5.007736   -0.903499    1.078362
     12          6           0       -2.657228   -1.258903    1.181084
     13          7           0       -1.539747   -1.983837    1.098187
     14          1           0       -1.564155   -2.956760    0.865742
     15          1           0       -0.640549   -1.579365    1.265525
     16          1           0       -8.056679   -1.650434    1.500022
     17          1           0       -7.527632   -0.173084    1.051024
     18          1           0       -7.931210   -1.274438   -0.083110
     19          7           0       -3.293995    2.654604   -1.557557
     20          6           0       -1.955027    2.368970   -1.440768
     21          6           0       -3.903680    3.984744   -1.358264
     22          7           0        1.296108    3.404721   -0.793384
     23          1           0        2.207548    2.995654   -0.759043
     24          1           0        1.230236    4.383246   -0.596229
     25          7           0       -0.979231    3.248366   -1.126856
     26          6           0        0.210389    2.674702   -1.090385
     27          7           0        0.429766    1.341972   -1.341789
     28          1           0        1.373348    0.989736   -1.291237
     29          6           0       -0.559219    0.418808   -1.666641
     30          8           0       -0.254770   -0.762160   -1.874880
     31          6           0       -1.842656    1.020314   -1.709645
     32          7           0       -3.086056    0.470322   -1.989611
     33          6           0       -3.914167    1.474354   -1.887778
     34          1           0       -4.991496    1.409006   -2.043845
     35          1           0       -4.570258    3.939736   -0.614992
     36          1           0       -3.190412    4.644457   -1.125253
     37          1           0       -4.361026    4.272946   -2.198845
     38          1           0        6.189015   -0.267334   -0.251113
     39          1           0        6.370470   -0.183428   -2.001738
     40          1           0        5.212327    0.866602   -1.184728
     41          1           0        4.242974   -4.473907   -1.541161
     42          6           0        3.980535   -3.416171   -1.517668
     43          8           0        1.653854   -3.798679   -1.777167
     44          6           0        2.607478   -3.032516   -1.641604
     45          1           0        1.427293   -1.361079   -1.683819
     46          7           0        2.385225   -1.670876   -1.599376
     47          8           0        3.032078    0.499262   -1.428317
     48          6           0        3.326605   -0.682782   -1.454448
     49          1           0        5.979488   -2.714739   -1.276855
     50          6           0        4.921450   -2.475456   -1.375052
     51          6           0        5.668392   -0.112236   -1.184368
     52          7           0        4.627594   -1.132001   -1.341123
     53          1           0        4.239812    3.771834    3.109331
     54          1           0        3.041050    3.842141    2.004740
     55          1           0        4.599421    3.851893    1.519464
     56          1           0        1.955395   -3.080325    1.407925
     57          1           0        3.577039   -2.716355    1.792492
     58          7           0        2.651449   -2.388450    1.600205
     59          6           0        2.359376   -1.086195    1.600443
     60          6           0        2.847304    1.231502    1.828350
     61          7           0        1.595620    1.642906    1.566699
     62          1           0       -0.237119    0.845831    1.112470
     63          6           0        0.800590    0.600415    1.334256
     64          7           0        1.091212   -0.704625    1.333551
     65          1           0        5.987260    1.498082    2.550713
     66          6           0        4.985521    1.143321    2.306556
     67          7           0        4.654584   -0.117197    2.167801
     68          6           0        3.301455   -0.075396    1.864467
     69          6           0        3.956446    3.487736    2.193371
     70          7           0        3.940646    2.014097    2.114934
 ---------------------------------------------------------------------

 SCF Done:  E(RwB97XD) =  -2048.74680128     A.U. after   15 cycles

 The electronic state is 1-A.
 Alpha  occ. eigenvalues --  -19.25871 -19.22111 -19.20564 -14.52422 -14.52225
 Alpha  occ. eigenvalues --  -14.48637 -14.48629 -14.47819 -14.47814 -14.46801
 Alpha  occ. eigenvalues --  -14.46435 -14.45271 -14.43852 -14.43747 -14.42184
 Alpha  occ. eigenvalues --  -14.41946 -14.41254 -14.40847 -14.40689 -14.40124
 Alpha  occ. eigenvalues --  -10.45476 -10.41039 -10.40200 -10.39533 -10.38124
 Alpha  occ. eigenvalues --  -10.37849 -10.37765 -10.36829 -10.35352 -10.35326
 Alpha  occ. eigenvalues --  -10.34954 -10.34207 -10.33954 -10.33934 -10.33211
 Alpha  occ. eigenvalues --  -10.33171 -10.33015 -10.32264 -10.31172 -10.30919
 Alpha  occ. eigenvalues --  -10.30761 -10.28376 -10.27968  -1.19438  -1.14911
 Alpha  occ. eigenvalues --   -1.13134  -1.13106  -1.11196  -1.10473  -1.09299
 Alpha  occ. eigenvalues --   -1.08887  -1.08433  -1.04899  -1.04436  -1.02481
 Alpha  occ. eigenvalues --   -1.00745  -1.00348  -0.99597  -0.98457  -0.96866
 Alpha  occ. eigenvalues --   -0.96457  -0.96391  -0.92569  -0.91069  -0.87347
 Alpha  occ. eigenvalues --   -0.85765  -0.83966  -0.83822  -0.83499  -0.82367
 Alpha  occ. eigenvalues --   -0.82218  -0.78877  -0.76709  -0.74546  -0.74440
 Alpha  occ. eigenvalues --   -0.73550  -0.73338  -0.72802  -0.70959  -0.70114
 Alpha  occ. eigenvalues --   -0.67255  -0.66536  -0.66467  -0.66209  -0.64414
 Alpha  occ. eigenvalues --   -0.63980  -0.63682  -0.62644  -0.62624  -0.61602
 Alpha  occ. eigenvalues --   -0.60372  -0.60240  -0.60093  -0.59484  -0.59227
 Alpha  occ. eigenvalues --   -0.59165  -0.58224  -0.56665  -0.56432  -0.56252
 Alpha  occ. eigenvalues --   -0.55954  -0.55415  -0.55120  -0.54593  -0.54316
 Alpha  occ. eigenvalues --   -0.53811  -0.53575  -0.53161  -0.53001  -0.52864
 Alpha  occ. eigenvalues --   -0.52457  -0.52317  -0.51690  -0.50655  -0.50131
 Alpha  occ. eigenvalues --   -0.50091  -0.49530  -0.49416  -0.48815  -0.48783
 Alpha  occ. eigenvalues --   -0.48621  -0.48439  -0.48179  -0.47615  -0.47327
 Alpha  occ. eigenvalues --   -0.46845  -0.45601  -0.44828  -0.44480  -0.43893
 Alpha  occ. eigenvalues --   -0.41035  -0.40508  -0.39432  -0.37513  -0.37451
 Alpha  occ. eigenvalues --   -0.37185  -0.37071  -0.36894  -0.35963  -0.34582
 Alpha  occ. eigenvalues --   -0.34096  -0.33619  -0.33363  -0.33258  -0.33084
 Alpha  occ. eigenvalues --   -0.32587  -0.32343  -0.32023  -0.31758  -0.30798
 Alpha  occ. eigenvalues --   -0.30340  -0.29563  -0.25776  -0.25089
 Alpha virt. eigenvalues --    0.02968   0.04369   0.07278   0.08090   0.08623
 Alpha virt. eigenvalues --    0.09356   0.09790   0.10757   0.11158   0.11602
 Alpha virt. eigenvalues --    0.12698   0.14308   0.14433   0.14630   0.15044

 Mulliken charges:
               1
     1  N   -0.312746
     2  C    0.180866
     3  C    0.049522
     4  N   -0.259886
     5  C    0.134927
     6  H    0.026066
     7  N   -0.290233
     8  C    0.135593
     9  H    0.009149
    10  N   -0.292022
    11  C    0.246150
    12  C    0.116606
    13  N   -0.054040
    14  H    0.110345
    15  H    0.086544
    16  H    0.025160
    17  H    0.032087
    18  H    0.025916
    19  N   -0.308970
    20  C    0.247746
    21  C    0.180230
    22  N   -0.099868
    23  H    0.111979
    24  H    0.113649
    25  N   -0.305032
    26  C    0.225949
    27  N   -0.139783
    28  H    0.120443
    29  C    0.168792
    30  O   -0.321386
    31  C    0.003249
    32  N   -0.226014
    33  C    0.131151
    34  H    0.023028
    35  H    0.030696
    36  H    0.027666
    37  H    0.023670
    38  H    0.062569
    39  H    0.058296
    40  H    0.070256
    41  H    0.029547
    42  C   -0.113151
    43  O   -0.266790
    44  C    0.164084
    45  H    0.133856
    46  N   -0.121716
    47  O   -0.343501
    48  C    0.342404
    49  H    0.048184
    50  C    0.169675
    51  C    0.039232
    52  N   -0.284332
    53  H    0.035939
    54  H    0.037191
    55  H    0.025905
    56  H    0.127706
    57  H    0.115731
    58  N   -0.061117
    59  C    0.083257
    60  C    0.245278
    61  N   -0.272561
    62  H    0.038582
    63  C    0.164605
    64  N   -0.300389
    65  H    0.034420
    66  C    0.135128
    67  N   -0.265186
    68  C    0.025834
    69  C    0.176435
    70  N   -0.312565
 Sum of Mulliken charges =  -0.00000

 Dipole moment (field-independent basis, Debye):
    X=              8.0113    Y=              6.0275    Z=              2.3557  Tot=             10.2986
 Quadrupole moment (field-independent basis, Debye-Ang):
   XX=           -151.7211   YY=           -219.5244   ZZ=           -254.1689
   XY=              1.4331   XZ=              3.7224   YZ=             -7.8705

 Normal termination of Gaussian 16 at Tue Jan 23 13:13:33 2018.
