 Gaussian 16, Revision A.03,
 Gaussian 16:  EM64L-G16RevA.03 25-Dec-2016

 ---------------------------------------
 #p wb97xd/cc-pvdz sp scf=(maxcycles=20)
 ---------------------------------------

 ------------------
 Base pair stacking
 ------------------
 Symbolic Z-matrix:
 Charge =  0 Multiplicity = 1

                         Standard orientation:
 ---------------------------------------------------------------------
 Center     Atomic      Atomic             Coordinates (Angstroms)
 Number     Number       Type             X           Y           Z
 ---------------------------------------------------------------------
      1          7           0        4.303941   -1.034234   -1.904785
      2          6           0        5.642804   -0.425416   -2.026377
      3          6           0        2.132412   -1.327449   -1.715551
      4          7           0        2.693807   -2.595694   -1.749019
      5          6           0        3.979602   -2.368281   -1.861689
      6          1           0        4.743801   -3.144009   -1.918178
      7          7           0        0.585015    0.449055   -1.603526
      8          6           0        1.635811    1.269738   -1.702894
      9          1           0        1.398123    2.332613   -1.694776
     10          7           0        2.930061    0.975997   -1.810305
     11          6           0        3.112486   -0.354850   -1.810619
     12          6           0        0.801693   -0.884406   -1.606741
     13          7           0       -0.245954   -1.705248   -1.507636
     14          1           0       -0.132446   -2.699400   -1.505920
     15          1           0       -1.179480   -1.354661   -1.431767
     16          1           0        6.071082   -0.726162   -2.878615
     17          1           0        5.557772    0.570518   -2.030547
     18          1           0        6.210606   -0.706540   -1.252706
     19          7           0        5.698010    1.197540    0.758346
     20          6           0        4.330499    1.295559    0.849856
     21          6           0        6.611813    2.304103    0.410253
     22          7           0        1.429576    3.192462    0.630500
     23          1           0        0.446631    3.053305    0.747595
     24          1           0        1.730816    4.112837    0.379722
     25          7           0        3.597729    2.410265    0.638854
     26          6           0        2.305153    2.190517    0.801836
     27          7           0        1.769155    0.973006    1.145181
     28          1           0        0.768840    0.897291    1.248215
     29          6           0        2.504097   -0.187354    1.367186
     30          8           0        1.922434   -1.235642    1.672967
     31          6           0        3.894394    0.033049    1.195788
     32          7           0        4.966528   -0.840016    1.318974
     33          6           0        6.012996   -0.106958    1.051113
     34          1           0        7.041684   -0.468996    1.052851
     35          1           0        7.119439    2.071215   -0.418537
     36          1           0        6.080292    3.135131    0.251692
     37          1           0        7.252889    2.458006    1.161342
     38          1           0       -4.306754    1.025852    0.975355
     39          1           0       -4.190045    1.166366    2.727868
     40          1           0       -2.926248    1.847840    1.703288
     41          1           0       -3.417902   -3.549333    2.168766
     42          6           0       -2.881898   -2.606705    2.057484
     43          8           0       -0.738307   -3.620793    1.996038
     44          6           0       -1.454022   -2.620051    1.963467
     45          1           0        0.131863   -1.343319    1.755480
     46          7           0       -0.875569   -1.374466    1.825074
     47          8           0       -0.919942    0.889019    1.646546
     48          6           0       -1.520158   -0.164036    1.770953
     49          1           0       -4.623902   -1.377505    2.074940
     50          6           0       -3.538687   -1.441898    2.007836
     51          6           0       -3.628066    1.034793    1.815212
     52          7           0       -2.895985   -0.233674    1.868157
     53          1           0       -6.568840    3.818330   -1.212886
     54          1           0       -5.197770    3.757480   -0.330522
     55          1           0       -6.643576    3.527996    0.391340
     56          1           0       -3.681814   -3.012330   -1.482451
     57          1           0       -5.362007   -2.718257   -1.506954
     58          7           0       -4.434358   -2.358944   -1.399265
     59          6           0       -4.211853   -1.065785   -1.155586
     60          6           0       -4.846697    1.195878   -0.776675
     61          7           0       -3.590373    1.650265   -0.636646
     62          1           0       -1.668881    0.938314   -0.676434
     63          6           0       -2.716038    0.655746   -0.775782
     64          7           0       -2.936910   -0.640104   -1.019882
     65          1           0       -8.074338    1.334049   -0.900766
     66          6           0       -7.028829    1.024536   -0.908354
     67          7           0       -6.616482   -0.202914   -1.110869
     68          6           0       -5.234741   -0.108264   -1.029982
     69          6           0       -6.113422    3.372496   -0.442293
     70          7           0       -6.010966    1.922837   -0.699220
 ---------------------------------------------------------------------

 SCF Done:  E(RwB97XD) =  -2048.70663577     A.U. after   15 cycles

 The electronic state is 1-A.
 Alpha  occ. eigenvalues --  -19.24896 -19.21110 -19.20583 -14.53133 -14.51211
 Alpha  occ. eigenvalues --  -14.49391 -14.48887 -14.48633 -14.46958 -14.46653
 Alpha  occ. eigenvalues --  -14.46611 -14.45903 -14.45049 -14.44814 -14.43268
 Alpha  occ. eigenvalues --  -14.41791 -14.41679 -14.41286 -14.41251 -14.40955
 Alpha  occ. eigenvalues --  -10.44453 -10.41062 -10.40766 -10.39216 -10.38451
 Alpha  occ. eigenvalues --  -10.38289 -10.37734 -10.36787 -10.36330 -10.36115
 Alpha  occ. eigenvalues --  -10.34638 -10.34355 -10.34039 -10.34037 -10.33589
 Alpha  occ. eigenvalues --  -10.33480 -10.33433 -10.32431 -10.31591 -10.30680
 Alpha  occ. eigenvalues --  -10.30210 -10.28841 -10.28464  -1.18510  -1.15928
 Alpha  occ. eigenvalues --   -1.13341  -1.12128  -1.11323  -1.11043  -1.10203
 Alpha  occ. eigenvalues --   -1.08619  -1.08169  -1.05813  -1.05650  -1.01550
 Alpha  occ. eigenvalues --   -1.01489  -1.01116  -0.99741  -0.98691  -0.97874
 Alpha  occ. eigenvalues --   -0.97048  -0.96971  -0.93361  -0.90005  -0.88375
 Alpha  occ. eigenvalues --   -0.86453  -0.84661  -0.84057  -0.83023  -0.82433
 Alpha  occ. eigenvalues --   -0.82213  -0.77950  -0.77646  -0.75691  -0.74934
 Alpha  occ. eigenvalues --   -0.73704  -0.73284  -0.72388  -0.71533  -0.71136
 Alpha  occ. eigenvalues --   -0.67535  -0.67503  -0.66711  -0.65645  -0.64893
 Alpha  occ. eigenvalues --   -0.64548  -0.63334  -0.63193  -0.62653  -0.61946
 Alpha  occ. eigenvalues --   -0.61473  -0.61161  -0.60925  -0.60140  -0.58963
 Alpha  occ. eigenvalues --   -0.58710  -0.58386  -0.58192  -0.57037  -0.56203
 Alpha  occ. eigenvalues --   -0.55873  -0.55681  -0.55565  -0.55062  -0.54390
 Alpha  occ. eigenvalues --   -0.54265  -0.54113  -0.53493  -0.53118  -0.52822
 Alpha  occ. eigenvalues --   -0.51983  -0.51838  -0.51122  -0.50866  -0.50704
 Alpha  occ. eigenvalues --   -0.50337  -0.50163  -0.49746  -0.49345  -0.49156
 Alpha  occ. eigenvalues --   -0.48524  -0.48251  -0.47911  -0.47256  -0.47095
 Alpha  occ. eigenvalues --   -0.46926  -0.45484  -0.45404  -0.44913  -0.41958
 Alpha  occ. eigenvalues --   -0.41430  -0.41286  -0.38747  -0.38585  -0.38291
 Alpha  occ. eigenvalues --   -0.38179  -0.37222  -0.36558  -0.35360  -0.35181
 Alpha  occ. eigenvalues --   -0.34783  -0.34217  -0.34004  -0.33680  -0.33069
 Alpha  occ. eigenvalues --   -0.32522  -0.32317  -0.31907  -0.31062  -0.30870
 Alpha  occ. eigenvalues --   -0.30670  -0.30523  -0.26610  -0.25364
 Alpha virt. eigenvalues --    0.02670   0.04667   0.05872   0.07209   0.08545
 Alpha virt. eigenvalues --    0.08995   0.09578   0.09734   0.10966   0.12423
 Alpha virt. eigenvalues --    0.13207   0.13656   0.14212   0.14481   0.14641

 Mulliken charges:
               1
     1  N   -0.299245
     2  C    0.192258
     3  C    0.066106
     4  N   -0.257249
     5  C    0.151031
     6  H    0.029398
     7  N   -0.280494
     8  C    0.129647
     9  H   -0.000031
    10  N   -0.269470
    11  C    0.223317
    12  C    0.075324
    13  N   -0.062526
    14  H    0.113324
    15  H    0.083154
    16  H    0.022996
    17  H    0.026753
    18  H    0.018251
    19  N   -0.297670
    20  C    0.245634
    21  C    0.183779
    22  N   -0.094857
    23  H    0.122661
    24  H    0.119006
    25  N   -0.273142
    26  C    0.161966
    27  N   -0.106176
    28  H    0.120348
    29  C    0.175263
    30  O   -0.318408
    31  C   -0.006663
    32  N   -0.215204
    33  C    0.083652
    34  H    0.027003
    35  H    0.017189
    36  H    0.033896
    37  H    0.027421
    38  H    0.043116
    39  H    0.037218
    40  H    0.073849
    41  H    0.022196
    42  C   -0.106968
    43  O   -0.268420
    44  C    0.174161
    45  H    0.132898
    46  N   -0.124635
    47  O   -0.344056
    48  C    0.329698
    49  H    0.045811
    50  C    0.164515
    51  C    0.080402
    52  N   -0.276492
    53  H    0.036246
    54  H    0.041186
    55  H    0.032337
    56  H    0.121405
    57  H    0.120957
    58  N   -0.059607
    59  C    0.096356
    60  C    0.207752
    61  N   -0.268663
    62  H    0.037820
    63  C    0.143523
    64  N   -0.300028
    65  H    0.041147
    66  C    0.140582
    67  N   -0.254655
    68  C    0.037323
    69  C    0.179321
    70  N   -0.304539
 Sum of Mulliken charges =  -0.00000

 Dipole moment (field-independent basis, Debye):
    X=             -6.5802    Y=              7.6535    Z=             -2.0996  Tot=             10.3094
 Quadrupole moment (field-independent basis, Debye-Ang):
   XX=           -151.3518   YY=           -232.1412   ZZ=           -253.4014
   XY=              2.5822   XZ=            -15.0500   YZ=             16.8987

 Normal termination of Gaussian 16 at Sat Jan 20 17:42:58 2018.
