 Gaussian 16, Revision A.03,
 Gaussian 16:  EM64L-G16RevA.03 25-Dec-2016

 ---------------------------------------
 #p wb97xd/cc-pvdz sp scf=(maxcycles=20)
 ---------------------------------------

 ------------------
 Base pair stacking
 ------------------
 Symbolic Z-matrix:
 Charge =  0 Multiplicity = 1

                         Standard orientation:
 ---------------------------------------------------------------------
 Center     Atomic      Atomic             Coordinates (Angstroms)
 Number     Number       Type             X           Y           Z
 ---------------------------------------------------------------------
      1          7           0        4.864211   -1.660007   -1.507499
      2          6           0        6.194977   -1.164709   -1.909681
      3          6           0        2.696577   -1.855486   -1.190553
      4          7           0        3.274872   -2.981733   -0.623211
      5          6           0        4.557652   -2.818881   -0.836863
      6          1           0        5.332189   -3.519614   -0.523813
      7          7           0        1.125502   -0.256440   -1.923840
      8          6           0        2.165374    0.432482   -2.405121
      9          1           0        1.913525    1.369781   -2.899396
     10          7           0        3.463550    0.138797   -2.367694
     11          6           0        3.663703   -1.031573   -1.739515
     12          6           0        1.359952   -1.430057   -1.297158
     13          7           0        0.323227   -2.119194   -0.816054
     14          1           0        0.449976   -2.992824   -0.344960
     15          1           0       -0.614977   -1.785909   -0.910059
     16          1           0        6.628192   -1.827506   -2.520598
     17          1           0        6.096683   -0.290324   -2.383937
     18          1           0        6.765601   -1.039472   -1.098082
     19          7           0        5.158297    1.624358    0.807132
     20          6           0        3.789531    1.739120    0.844149
     21          6           0        6.089104    2.661940    0.319564
     22          7           0        0.909214    3.588251    0.255712
     23          1           0       -0.077514    3.471460    0.365088
     24          1           0        1.223721    4.458478   -0.124418
     25          7           0        3.070733    2.810419    0.444532
     26          6           0        1.772653    2.621892    0.602890
     27          7           0        1.218847    1.472875    1.113359
     28          1           0        0.215588    1.416673    1.198642
     29          6           0        1.939201    0.358140    1.530874
     30          8           0        1.341969   -0.629275    1.977043
     31          6           0        3.335187    0.545749    1.366855
     32          7           0        4.397331   -0.301181    1.652254
     33          6           0        5.455900    0.379215    1.304834
     34          1           0        6.481560    0.018808    1.390831
     35          1           0        6.617501    2.303398   -0.449234
     36          1           0        5.568017    3.460370    0.020823
     37          1           0        6.710510    2.927264    1.055942
     38          1           0       -4.849633    1.516319    0.766967
     39          1           0       -4.779813    1.923304    2.479903
     40          1           0       -3.483699    2.436199    1.398972
     41          1           0       -4.026211   -2.824543    2.671030
     42          6           0       -3.480683   -1.911614    2.431883
     43          8           0       -1.343471   -2.929222    2.586558
     44          6           0       -2.050909   -1.943257    2.381120
     45          1           0       -0.450905   -0.717963    2.024785
     46          7           0       -1.460059   -0.735220    2.070012
     47          8           0       -1.483464    1.474309    1.545985
     48          6           0       -2.094315    0.454450    1.813201
     49          1           0       -5.213740   -0.689319    2.212101
     50          6           0       -4.127578   -0.766308    2.186125
     51          6           0       -4.194074    1.651878    1.614275
     52          7           0       -3.472740    0.404433    1.881271
     53          1           0       -6.073079    2.808750   -3.135167
     54          1           0       -4.702313    3.189326   -2.336248
     55          1           0       -6.145738    3.310823   -1.584024
     56          1           0       -3.094928   -3.301006   -0.157425
     57          1           0       -4.778853   -3.074158   -0.309171
     58          7           0       -3.856209   -2.695286   -0.389154
     59          6           0       -3.651234   -1.438030   -0.787237
     60          6           0       -4.316615    0.725878   -1.519680
     61          7           0       -3.066623    1.207850   -1.617892
     62          1           0       -1.135760    0.585414   -1.326429
     63          6           0       -2.178941    0.276616   -1.274764
     64          7           0       -2.382249   -0.983168   -0.875774
     65          1           0       -7.545668    0.749266   -1.677224
     66          6           0       -6.496123    0.485845   -1.543080
     67          7           0       -6.067217   -0.686238   -1.143165
     68          6           0       -4.686945   -0.547631   -1.124010
     69          6           0       -5.612626    2.786052   -2.247777
     70          7           0       -5.490561    1.388661   -1.789073
 ---------------------------------------------------------------------

 SCF Done:  E(RwB97XD) =  -2048.75018875     A.U. after   15 cycles

 The electronic state is 1-A.
 Alpha  occ. eigenvalues --  -19.25412 -19.21848 -19.20667 -14.52665 -14.51952
 Alpha  occ. eigenvalues --  -14.49133 -14.48466 -14.48088 -14.47398 -14.46872
 Alpha  occ. eigenvalues --  -14.46714 -14.45587 -14.44550 -14.44533 -14.42457
 Alpha  occ. eigenvalues --  -14.42066 -14.41340 -14.41029 -14.40925 -14.40517
 Alpha  occ. eigenvalues --  -10.45002 -10.41291 -10.40069 -10.39856 -10.38318
 Alpha  occ. eigenvalues --  -10.38129 -10.37409 -10.37152 -10.36064 -10.35548
 Alpha  occ. eigenvalues --  -10.34662 -10.34581 -10.34040 -10.33782 -10.33722
 Alpha  occ. eigenvalues --  -10.33252 -10.33191 -10.32881 -10.31244 -10.30993
 Alpha  occ. eigenvalues --  -10.30678 -10.28414 -10.28352  -1.18995  -1.15424
 Alpha  occ. eigenvalues --   -1.13293  -1.12801  -1.11060  -1.10836  -1.09523
 Alpha  occ. eigenvalues --   -1.08832  -1.08615  -1.05149  -1.04960  -1.02080
 Alpha  occ. eigenvalues --   -1.01120  -1.00511  -0.99795  -0.98666  -0.97096
 Alpha  occ. eigenvalues --   -0.96870  -0.96681  -0.92837  -0.90596  -0.87825
 Alpha  occ. eigenvalues --   -0.86054  -0.84385  -0.83810  -0.83191  -0.82767
 Alpha  occ. eigenvalues --   -0.82250  -0.78441  -0.77193  -0.75013  -0.74831
 Alpha  occ. eigenvalues --   -0.73712  -0.72952  -0.72854  -0.71044  -0.70539
 Alpha  occ. eigenvalues --   -0.67518  -0.66942  -0.66273  -0.66128  -0.64485
 Alpha  occ. eigenvalues --   -0.64346  -0.63645  -0.62717  -0.62697  -0.61918
 Alpha  occ. eigenvalues --   -0.60944  -0.60619  -0.60431  -0.59577  -0.59081
 Alpha  occ. eigenvalues --   -0.58889  -0.58450  -0.57241  -0.56563  -0.56005
 Alpha  occ. eigenvalues --   -0.55781  -0.55613  -0.55345  -0.54293  -0.54069
 Alpha  occ. eigenvalues --   -0.53807  -0.53731  -0.53548  -0.53213  -0.53094
 Alpha  occ. eigenvalues --   -0.52924  -0.51995  -0.51711  -0.50625  -0.50348
 Alpha  occ. eigenvalues --   -0.50306  -0.50010  -0.49367  -0.49105  -0.48889
 Alpha  occ. eigenvalues --   -0.48847  -0.48422  -0.48302  -0.47996  -0.47277
 Alpha  occ. eigenvalues --   -0.46915  -0.45920  -0.45550  -0.44771  -0.42663
 Alpha  occ. eigenvalues --   -0.41127  -0.40878  -0.39096  -0.38119  -0.37753
 Alpha  occ. eigenvalues --   -0.37433  -0.37341  -0.37033  -0.35891  -0.34840
 Alpha  occ. eigenvalues --   -0.34444  -0.34135  -0.33420  -0.33273  -0.33093
 Alpha  occ. eigenvalues --   -0.32800  -0.32732  -0.31969  -0.31682  -0.30813
 Alpha  occ. eigenvalues --   -0.30490  -0.29865  -0.26081  -0.25380
 Alpha virt. eigenvalues --    0.03029   0.04052   0.06967   0.07908   0.08735
 Alpha virt. eigenvalues --    0.09003   0.09662   0.10327   0.10983   0.12322
 Alpha virt. eigenvalues --    0.12879   0.13535   0.14252   0.14476   0.14820

 Mulliken charges:
               1
     1  N   -0.303863
     2  C    0.180870
     3  C    0.058421
     4  N   -0.252212
     5  C    0.147014
     6  H    0.025901
     7  N   -0.291757
     8  C    0.129421
     9  H    0.010208
    10  N   -0.282906
    11  C    0.237412
    12  C    0.080976
    13  N   -0.052267
    14  H    0.115962
    15  H    0.085266
    16  H    0.026507
    17  H    0.032261
    18  H    0.013966
    19  N   -0.307951
    20  C    0.263262
    21  C    0.183578
    22  N   -0.124101
    23  H    0.119489
    24  H    0.118576
    25  N   -0.309172
    26  C    0.245665
    27  N   -0.139882
    28  H    0.119789
    29  C    0.184887
    30  O   -0.320773
    31  C   -0.016097
    32  N   -0.218346
    33  C    0.108682
    34  H    0.024036
    35  H    0.022728
    36  H    0.032165
    37  H    0.024651
    38  H    0.054704
    39  H    0.057076
    40  H    0.075762
    41  H    0.019451
    42  C   -0.099945
    43  O   -0.272466
    44  C    0.167298
    45  H    0.129787
    46  N   -0.115329
    47  O   -0.348993
    48  C    0.338853
    49  H    0.044920
    50  C    0.160689
    51  C    0.047636
    52  N   -0.275524
    53  H    0.035424
    54  H    0.041894
    55  H    0.026983
    56  H    0.125433
    57  H    0.115958
    58  N   -0.051459
    59  C    0.087386
    60  C    0.211837
    61  N   -0.261035
    62  H    0.028762
    63  C    0.166412
    64  N   -0.307689
    65  H    0.037274
    66  C    0.128897
    67  N   -0.254147
    68  C    0.032606
    69  C    0.180484
    70  N   -0.301307
 Sum of Mulliken charges =  -0.00000

 Dipole moment (field-independent basis, Debye):
    X=             -6.3331    Y=              7.1961    Z=             -2.6978  Tot=              9.9585
 Quadrupole moment (field-independent basis, Debye-Ang):
   XX=           -150.2016   YY=           -224.4111   ZZ=           -257.5479
   XY=             -5.5108   XZ=             -7.8184   YZ=              6.2990

 Normal termination of Gaussian 16 at Sun Jan 21 01:18:36 2018.
