 Gaussian 16, Revision A.03,
 Gaussian 16:  EM64L-G16RevA.03 25-Dec-2016

 ---------------------------------------
 #p wb97xd/cc-pvdz sp scf=(maxcycles=20)
 ---------------------------------------

 ------------------
 Base pair stacking
 ------------------
 Symbolic Z-matrix:
 Charge =  0 Multiplicity = 1

                         Standard orientation:
 ---------------------------------------------------------------------
 Center     Atomic      Atomic             Coordinates (Angstroms)
 Number     Number       Type             X           Y           Z
 ---------------------------------------------------------------------
      1          7           0        5.756851   -1.172379   -1.041432
      2          6           0        7.088351   -0.536789   -1.007490
      3          6           0        3.586807   -1.511604   -1.156123
      4          7           0        4.168083   -2.762923   -1.011028
      5          6           0        5.452197   -2.508469   -0.947741
      6          1           0        6.229121   -3.264713   -0.831884
      7          7           0        2.010535    0.224670   -1.408394
      8          6           0        3.050376    1.065091   -1.411198
      9          1           0        2.796342    2.118820   -1.517802
     10          7           0        4.350810    0.800523   -1.302600
     11          6           0        4.553548   -0.521387   -1.176536
     12          6           0        2.247617   -1.099089   -1.279898
     13          7           0        1.210925   -1.939589   -1.276873
     14          1           0        1.339574   -2.927562   -1.184170
     15          1           0        0.270852   -1.610567   -1.367120
     16          1           0        7.644957   -0.885442   -1.761684
     17          1           0        6.988189    0.453565   -1.098515
     18          1           0        7.537933   -0.746235   -0.139154
     19          7           0        4.273006    1.507790    1.263952
     20          6           0        2.905544    1.570257    1.144816
     21          6           0        5.213404    2.578730    0.877388
     22          7           0        0.043065    3.306150    0.220369
     23          1           0       -0.944607    3.152043    0.218106
     24          1           0        0.365686    4.186629   -0.128038
     25          7           0        2.196921    2.612085    0.658524
     26          6           0        0.897286    2.374552    0.670182
     27          7           0        0.332768    1.206742    1.123006
     28          1           0       -0.670853    1.112481    1.094501
     29          6           0        1.042532    0.121610    1.627585
     30          8           0        0.436124   -0.886581    2.010427
     31          6           0        2.440062    0.361952    1.621393
     32          7           0        3.494078   -0.442889    2.031473
     33          6           0        4.558873    0.276433    1.801244
     34          1           0        5.580978   -0.044251    2.005519
     35          1           0        5.838755    2.238349    0.176045
     36          1           0        4.699908    3.355771    0.515716
     37          1           0        5.736808    2.869821    1.677465
     38          1           0       -5.654505    1.017119    0.091066
     39          1           0       -5.794897    1.431605    1.797849
     40          1           0       -4.404717    1.990432    0.866998
     41          1           0       -4.889659   -3.283370    2.107837
     42          6           0       -4.355277   -2.350975    1.925360
     43          8           0       -2.212644   -3.285666    2.328589
     44          6           0       -2.928804   -2.328086    2.037133
     45          1           0       -1.345969   -1.043592    1.855395
     46          7           0       -2.352359   -1.099278    1.786141
     47          8           0       -2.399301    1.106165    1.246696
     48          6           0       -2.997709    0.064494    1.450435
     49          1           0       -6.096973   -1.196486    1.501728
     50          6           0       -5.012760   -1.231977    1.599532
     51          6           0       -5.104909    1.180183    1.006167
     52          7           0       -4.372094   -0.037976    1.362273
     53          1           0       -5.176269    3.413101   -2.338986
     54          1           0       -3.952732    3.453361   -1.260367
     55          1           0       -5.486614    3.235765   -0.746614
     56          1           0       -2.167162   -3.336539   -1.665880
     57          1           0       -3.829244   -3.091761   -1.961995
     58          7           0       -2.934524   -2.700062   -1.744554
     59          6           0       -2.772971   -1.387141   -1.567573
     60          6           0       -3.495526    0.877244   -1.457052
     61          7           0       -2.282384    1.375185   -1.165903
     62          1           0       -0.365084    0.715874   -0.866111
     63          6           0       -1.380479    0.397960   -1.098838
     64          7           0       -1.540301   -0.917614   -1.275782
     65          1           0       -6.669623    0.916474   -2.070023
     66          6           0       -5.629823    0.636383   -1.898852
     67          7           0       -5.171130   -0.590437   -1.945655
     68          6           0       -3.819061   -0.451904   -1.667341
     69          6           0       -4.834546    3.036091   -1.478129
     70          7           0       -4.670250    1.575234   -1.608140
 ---------------------------------------------------------------------

 SCF Done:  E(RwB97XD) =  -2048.70247314     A.U. after   15 cycles

 The electronic state is 1-A.
 Alpha  occ. eigenvalues --  -19.25226 -19.21436 -19.20535 -14.52532 -14.51921
 Alpha  occ. eigenvalues --  -14.49288 -14.48142 -14.48100 -14.47301 -14.46689
 Alpha  occ. eigenvalues --  -14.46339 -14.45994 -14.44462 -14.44452 -14.42939
 Alpha  occ. eigenvalues --  -14.41805 -14.41802 -14.41231 -14.40608 -14.40469
 Alpha  occ. eigenvalues --  -10.44749 -10.41042 -10.40022 -10.39563 -10.38301
 Alpha  occ. eigenvalues --  -10.38088 -10.37408 -10.37234 -10.35913 -10.35695
 Alpha  occ. eigenvalues --  -10.34561 -10.34476 -10.34439 -10.33894 -10.33802
 Alpha  occ. eigenvalues --  -10.33139 -10.33024 -10.32946 -10.31821 -10.30540
 Alpha  occ. eigenvalues --  -10.29978 -10.28881 -10.27835  -1.19147  -1.15722
 Alpha  occ. eigenvalues --   -1.13100  -1.12500  -1.11822  -1.10288  -1.09496
 Alpha  occ. eigenvalues --   -1.08823  -1.08397  -1.05517  -1.04949  -1.01995
 Alpha  occ. eigenvalues --   -1.01430  -1.01047  -0.99509  -0.98460  -0.97511
 Alpha  occ. eigenvalues --   -0.96994  -0.96223  -0.93190  -0.90546  -0.88081
 Alpha  occ. eigenvalues --   -0.86460  -0.84505  -0.83780  -0.83413  -0.82910
 Alpha  occ. eigenvalues --   -0.81929  -0.78382  -0.77402  -0.75280  -0.74365
 Alpha  occ. eigenvalues --   -0.73568  -0.73332  -0.72934  -0.71514  -0.70736
 Alpha  occ. eigenvalues --   -0.67177  -0.67068  -0.66890  -0.66117  -0.64605
 Alpha  occ. eigenvalues --   -0.64390  -0.63636  -0.63252  -0.62621  -0.62049
 Alpha  occ. eigenvalues --   -0.61534  -0.60969  -0.60752  -0.59839  -0.59196
 Alpha  occ. eigenvalues --   -0.58205  -0.58045  -0.57748  -0.57141  -0.56427
 Alpha  occ. eigenvalues --   -0.56061  -0.55937  -0.55521  -0.54335  -0.54211
 Alpha  occ. eigenvalues --   -0.53928  -0.53751  -0.53480  -0.53163  -0.52990
 Alpha  occ. eigenvalues --   -0.52643  -0.52397  -0.52128  -0.51274  -0.50632
 Alpha  occ. eigenvalues --   -0.49973  -0.49738  -0.49365  -0.49030  -0.48826
 Alpha  occ. eigenvalues --   -0.48380  -0.48113  -0.48018  -0.47630  -0.47077
 Alpha  occ. eigenvalues --   -0.46815  -0.45705  -0.45302  -0.44604  -0.42857
 Alpha  occ. eigenvalues --   -0.41268  -0.41040  -0.39257  -0.38071  -0.37939
 Alpha  occ. eigenvalues --   -0.37807  -0.37242  -0.36756  -0.36099  -0.34903
 Alpha  occ. eigenvalues --   -0.34432  -0.34034  -0.33822  -0.33427  -0.32784
 Alpha  occ. eigenvalues --   -0.32399  -0.32360  -0.31647  -0.31633  -0.30969
 Alpha  occ. eigenvalues --   -0.30623  -0.29198  -0.25908  -0.25202
 Alpha virt. eigenvalues --    0.03400   0.03697   0.06768   0.07004   0.08478
 Alpha virt. eigenvalues --    0.08745   0.09942   0.10299   0.11199   0.12417
 Alpha virt. eigenvalues --    0.13204   0.13988   0.14004   0.14097   0.14667

 Mulliken charges:
               1
     1  N   -0.309118
     2  C    0.173444
     3  C    0.080010
     4  N   -0.257110
     5  C    0.133744
     6  H    0.027178
     7  N   -0.284755
     8  C    0.143960
     9  H    0.019436
    10  N   -0.286757
    11  C    0.223138
    12  C    0.085120
    13  N   -0.051792
    14  H    0.108342
    15  H    0.084736
    16  H    0.029449
    17  H    0.035550
    18  H    0.025479
    19  N   -0.262217
    20  C    0.182717
    21  C    0.190022
    22  N   -0.101543
    23  H    0.112899
    24  H    0.114400
    25  N   -0.291227
    26  C    0.217648
    27  N   -0.137345
    28  H    0.120583
    29  C    0.173872
    30  O   -0.321439
    31  C    0.012122
    32  N   -0.217246
    33  C    0.114604
    34  H    0.013330
    35  H    0.012948
    36  H    0.026484
    37  H    0.018258
    38  H    0.035486
    39  H    0.053853
    40  H    0.064108
    41  H    0.026435
    42  C   -0.111104
    43  O   -0.267569
    44  C    0.174387
    45  H    0.130486
    46  N   -0.119664
    47  O   -0.326444
    48  C    0.328357
    49  H    0.044518
    50  C    0.171838
    51  C    0.064006
    52  N   -0.275925
    53  H    0.038791
    54  H    0.040864
    55  H    0.025196
    56  H    0.123167
    57  H    0.119576
    58  N   -0.063832
    59  C    0.102852
    60  C    0.176896
    61  N   -0.244158
    62  H    0.042138
    63  C    0.136570
    64  N   -0.295385
    65  H    0.040534
    66  C    0.106855
    67  N   -0.243132
    68  C    0.058226
    69  C    0.176650
    70  N   -0.293500
 Sum of Mulliken charges =  -0.00000

 Dipole moment (field-independent basis, Debye):
    X=             -6.0053    Y=              6.6464    Z=             -4.2419  Tot=              9.9112
 Quadrupole moment (field-independent basis, Debye-Ang):
   XX=           -147.9742   YY=           -228.5294   ZZ=           -260.1176
   XY=             -9.5578   XZ=              1.4081   YZ=             13.3292

 Normal termination of Gaussian 16 at Sat Jan 20 18:18:05 2018.
