 Gaussian 16, Revision A.03,
 Gaussian 16:  EM64L-G16RevA.03 25-Dec-2016

 ---------------------------------------
 #p wb97xd/cc-pvdz sp scf=(maxcycles=20)
 ---------------------------------------

 ------------------
 Base pair stacking
 ------------------
 Symbolic Z-matrix:
 Charge =  0 Multiplicity = 1

                         Standard orientation:
 ---------------------------------------------------------------------
 Center     Atomic      Atomic             Coordinates (Angstroms)
 Number     Number       Type             X           Y           Z
 ---------------------------------------------------------------------
      1          7           0        5.179407   -1.308073   -1.434359
      2          6           0        6.519923   -0.708889   -1.582674
      3          6           0        3.001724   -1.600580   -1.337153
      4          7           0        3.571443   -2.840116   -1.084780
      5          6           0        4.860612   -2.614279   -1.153445
      6          1           0        5.631372   -3.371367   -1.006176
      7          7           0        1.440007    0.133755   -1.677835
      8          6           0        2.490383    0.939506   -1.865025
      9          1           0        2.246539    1.978927   -2.080468
     10          7           0        3.790647    0.655409   -1.826223
     11          6           0        3.980370   -0.646366   -1.554522
     12          6           0        1.664118   -1.170488   -1.406165
     13          7           0        0.616899   -1.976383   -1.218999
     14          1           0        0.735777   -2.948873   -1.015643
     15          1           0       -0.321657   -1.635738   -1.275623
     16          1           0        7.007990   -1.161265   -2.329216
     17          1           0        6.429618    0.265416   -1.786866
     18          1           0        7.034345   -0.823320   -0.732809
     19          7           0        4.860343    1.474425    1.069868
     20          6           0        3.489405    1.564308    1.047506
     21          6           0        5.792851    2.547431    0.670120
     22          7           0        0.604832    3.387745    0.402495
     23          1           0       -0.383510    3.249708    0.460576
     24          1           0        0.920012    4.278563    0.074135
     25          7           0        2.769661    2.639316    0.659707
     26          6           0        1.469467    2.422257    0.749106
     27          7           0        0.914542    1.243350    1.184706
     28          1           0       -0.090340    1.166589    1.220514
     29          6           0        1.635824    0.124215    1.588639
     30          8           0        1.037446   -0.891260    1.964779
     31          6           0        3.034097    0.342253    1.498127
     32          7           0        4.097778   -0.497934    1.797377
     33          6           0        5.158183    0.214454    1.528582
     34          1           0        6.185421   -0.131866    1.647414
     35          1           0        6.362781    2.230917   -0.087376
     36          1           0        5.271094    3.348906    0.380881
     37          1           0        6.374552    2.791664    1.445226
     38          1           0       -5.131273    1.198697    0.556662
     39          1           0       -5.148144    1.533570    2.286471
     40          1           0       -3.813536    2.113855    1.289750
     41          1           0       -4.314560   -3.204675    2.314475
     42          6           0       -3.775947   -2.273282    2.139422
     43          8           0       -1.629276   -3.260208    2.351411
     44          6           0       -2.345008   -2.278519    2.154390
     45          1           0       -0.753730   -1.012245    1.924777
     46          7           0       -1.763383   -1.048501    1.921947
     47          8           0       -1.804377    1.180607    1.490014
     48          6           0       -2.407498    0.140099    1.685560
     49          1           0       -5.519832   -1.072275    1.889908
     50          6           0       -4.432365   -1.129675    1.911626
     51          6           0       -4.518125    1.309179    1.438652
     52          7           0       -3.786416    0.063892    1.686862
     53          1           0       -5.743154    3.376633   -2.431707
     54          1           0       -4.436222    3.514797   -1.464781
     55          1           0       -5.927235    3.402260   -0.810325
     56          1           0       -2.804799   -3.319408   -1.168917
     57          1           0       -4.480919   -3.068039   -1.362644
     58          7           0       -3.565078   -2.676896   -1.265395
     59          6           0       -3.367505   -1.357003   -1.264536
     60          6           0       -4.040211    0.922558   -1.377764
     61          7           0       -2.799268    1.419543   -1.245463
     62          1           0       -0.875538    0.750481   -1.016914
     63          6           0       -1.911635    0.433927   -1.128977
     64          7           0       -2.107536   -0.888644   -1.129608
     65          1           0       -7.252224    0.971937   -1.741977
     66          6           0       -6.206931    0.687000   -1.619069
     67          7           0       -5.774424   -0.548253   -1.550026
     68          6           0       -4.402175   -0.413158   -1.396972
     69          6           0       -5.339674    3.097912   -1.560205
     70          7           0       -5.211239    1.628202   -1.521750
 ---------------------------------------------------------------------

 SCF Done:  E(RwB97XD) =  -2048.74247222     A.U. after   15 cycles

 The electronic state is 1-A.
 Alpha  occ. eigenvalues --  -19.25185 -19.21547 -19.20516 -14.52687 -14.51861
 Alpha  occ. eigenvalues --  -14.48830 -14.48794 -14.48315 -14.47287 -14.46609
 Alpha  occ. eigenvalues --  -14.46571 -14.45795 -14.44641 -14.44510 -14.42796
 Alpha  occ. eigenvalues --  -14.41856 -14.41350 -14.41216 -14.41049 -14.40715
 Alpha  occ. eigenvalues --  -10.44844 -10.41070 -10.40214 -10.39639 -10.38248
 Alpha  occ. eigenvalues --  -10.38131 -10.37423 -10.37190 -10.36179 -10.35826
 Alpha  occ. eigenvalues --  -10.34303 -10.34289 -10.34272 -10.34092 -10.33544
 Alpha  occ. eigenvalues --  -10.33532 -10.33337 -10.32902 -10.31430 -10.30914
 Alpha  occ. eigenvalues --  -10.30630 -10.28686 -10.28101  -1.18942  -1.15645
 Alpha  occ. eigenvalues --   -1.13097  -1.12553  -1.11412  -1.10566  -1.09583
 Alpha  occ. eigenvalues --   -1.08779  -1.08448  -1.05423  -1.05051  -1.01954
 Alpha  occ. eigenvalues --   -1.01305  -1.00815  -0.99610  -0.98440  -0.97247
 Alpha  occ. eigenvalues --   -0.97012  -0.96586  -0.93115  -0.90516  -0.87976
 Alpha  occ. eigenvalues --   -0.86250  -0.84206  -0.84071  -0.83132  -0.82643
 Alpha  occ. eigenvalues --   -0.82465  -0.78340  -0.77334  -0.75151  -0.74589
 Alpha  occ. eigenvalues --   -0.73513  -0.73179  -0.72847  -0.71332  -0.70676
 Alpha  occ. eigenvalues --   -0.67318  -0.67056  -0.66599  -0.66075  -0.64527
 Alpha  occ. eigenvalues --   -0.64254  -0.63629  -0.63042  -0.62532  -0.61797
 Alpha  occ. eigenvalues --   -0.61692  -0.60830  -0.60674  -0.59780  -0.59055
 Alpha  occ. eigenvalues --   -0.58567  -0.58285  -0.57528  -0.56880  -0.55992
 Alpha  occ. eigenvalues --   -0.55953  -0.55633  -0.55520  -0.54174  -0.54039
 Alpha  occ. eigenvalues --   -0.53880  -0.53850  -0.53398  -0.53124  -0.53089
 Alpha  occ. eigenvalues --   -0.52868  -0.52069  -0.51957  -0.50820  -0.50416
 Alpha  occ. eigenvalues --   -0.50284  -0.50017  -0.49238  -0.49153  -0.48815
 Alpha  occ. eigenvalues --   -0.48568  -0.48329  -0.48154  -0.47736  -0.47163
 Alpha  occ. eigenvalues --   -0.47092  -0.45928  -0.45166  -0.44941  -0.42722
 Alpha  occ. eigenvalues --   -0.41230  -0.41048  -0.38944  -0.38008  -0.37864
 Alpha  occ. eigenvalues --   -0.37428  -0.37152  -0.37089  -0.35975  -0.34979
 Alpha  occ. eigenvalues --   -0.34549  -0.34218  -0.33781  -0.33373  -0.32886
 Alpha  occ. eigenvalues --   -0.32539  -0.32369  -0.31803  -0.31586  -0.31061
 Alpha  occ. eigenvalues --   -0.30723  -0.29847  -0.26110  -0.25346
 Alpha virt. eigenvalues --    0.03430   0.03732   0.06933   0.07678   0.08786
 Alpha virt. eigenvalues --    0.09086   0.09758   0.10122   0.10767   0.12669
 Alpha virt. eigenvalues --    0.12887   0.13741   0.14151   0.14291   0.14467

 Mulliken charges:
               1
     1  N   -0.303397
     2  C    0.175131
     3  C    0.073510
     4  N   -0.256471
     5  C    0.141409
     6  H    0.026508
     7  N   -0.284750
     8  C    0.130027
     9  H    0.012550
    10  N   -0.277725
    11  C    0.228336
    12  C    0.075473
    13  N   -0.048811
    14  H    0.111632
    15  H    0.083484
    16  H    0.028688
    17  H    0.034383
    18  H    0.016897
    19  N   -0.293105
    20  C    0.251437
    21  C    0.187106
    22  N   -0.117055
    23  H    0.120214
    24  H    0.117212
    25  N   -0.293956
    26  C    0.221724
    27  N   -0.122712
    28  H    0.113474
    29  C    0.173067
    30  O   -0.321576
    31  C   -0.010150
    32  N   -0.215301
    33  C    0.102709
    34  H    0.020272
    35  H    0.016190
    36  H    0.031513
    37  H    0.022725
    38  H    0.052680
    39  H    0.053603
    40  H    0.074987
    41  H    0.024032
    42  C   -0.099250
    43  O   -0.268775
    44  C    0.168887
    45  H    0.129213
    46  N   -0.113216
    47  O   -0.340923
    48  C    0.331346
    49  H    0.045469
    50  C    0.161871
    51  C    0.057149
    52  N   -0.276859
    53  H    0.036953
    54  H    0.041394
    55  H    0.025080
    56  H    0.124136
    57  H    0.118248
    58  N   -0.058026
    59  C    0.094950
    60  C    0.177559
    61  N   -0.254713
    62  H    0.015430
    63  C    0.171313
    64  N   -0.302490
    65  H    0.035287
    66  C    0.115864
    67  N   -0.248120
    68  C    0.048252
    69  C    0.180810
    70  N   -0.292801
 Sum of Mulliken charges =  -0.00000

 Dipole moment (field-independent basis, Debye):
    X=             -6.2207    Y=              6.9975    Z=             -3.1368  Tot=              9.8743
 Quadrupole moment (field-independent basis, Debye-Ang):
   XX=           -149.9571   YY=           -227.0609   ZZ=           -258.4239
   XY=             -5.6511   XZ=             -5.7273   YZ=             12.3047

 Normal termination of Gaussian 16 at Sat Jan 20 10:55:04 2018.
