 Gaussian 16, Revision A.03,
 Gaussian 16:  EM64L-G16RevA.03 25-Dec-2016

 ---------------------------------------
 #p wb97xd/cc-pvdz sp scf=(maxcycles=20)
 ---------------------------------------

 ------------------
 Base pair stacking
 ------------------
 Symbolic Z-matrix:
 Charge =  0 Multiplicity = 1

                         Standard orientation:
 ---------------------------------------------------------------------
 Center     Atomic      Atomic             Coordinates (Angstroms)
 Number     Number       Type             X           Y           Z
 ---------------------------------------------------------------------
      1          7           0        4.895288   -1.105184   -1.599214
      2          6           0        6.238075   -0.493536   -1.628001
      3          6           0        2.716625   -1.402928   -1.553853
      4          7           0        3.281390   -2.670086   -1.563029
      5          6           0        4.571352   -2.439985   -1.589985
      6          1           0        5.339066   -3.214167   -1.604279
      7          7           0        1.161890    0.370466   -1.525299
      8          6           0        2.215370    1.193385   -1.548537
      9          1           0        1.975663    2.255834   -1.545659
     10          7           0        3.514406    0.902319   -1.574690
     11          6           0        3.698968   -0.428236   -1.575925
     12          6           0        1.380824   -0.962630   -1.527240
     13          7           0        0.330497   -1.785706   -1.504062
     14          1           0        0.445519   -2.779686   -1.504508
     15          1           0       -0.606640   -1.437034   -1.485460
     16          1           0        6.721208   -0.785486   -2.453542
     17          1           0        6.151621    0.502283   -1.628134
     18          1           0        6.755113   -0.781415   -0.821895
     19          7           0        5.141283    1.277676    0.981882
     20          6           0        3.770287    1.369203    0.986702
     21          6           0        6.068078    2.363896    0.605198
     22          7           0        0.877265    3.216770    0.458782
     23          1           0       -0.110093    3.077348    0.529033
     24          1           0        1.187827    4.118729    0.157580
     25          7           0        3.045277    2.458068    0.650846
     26          6           0        1.746558    2.238752    0.754947
     27          7           0        1.197784    1.045142    1.157021
     28          1           0        0.193579    0.967784    1.207519
     29          6           0        1.924553   -0.088409    1.507372
     30          8           0        1.331510   -1.116499    1.856731
     31          6           0        3.321315    0.131866    1.400486
     32          7           0        4.388964   -0.719344    1.650402
     33          6           0        5.445450    0.001661    1.389235
     34          1           0        6.474151   -0.349411    1.477458
     35          1           0        6.624341    2.074772   -0.173123
     36          1           0        5.542386    3.175706    0.354423
     37          1           0        6.663487    2.579413    1.378408
     38          1           0       -4.858101    1.027290    0.633271
     39          1           0       -4.844439    1.299042    2.374141
     40          1           0       -3.526624    1.914324    1.376054
     41          1           0       -4.016573   -3.437618    2.215355
     42          6           0       -3.479882   -2.500836    2.064909
     43          8           0       -1.331131   -3.496212    2.203433
     44          6           0       -2.048913   -2.507543    2.054727
     45          1           0       -0.460251   -1.234794    1.843582
     46          7           0       -1.469849   -1.270259    1.857040
     47          8           0       -1.515486    0.973112    1.507199
     48          6           0       -2.116450   -0.073434    1.675282
     49          1           0       -5.226306   -1.290415    1.889656
     50          6           0       -4.138696   -1.349278    1.890313
     51          6           0       -4.229553    1.105217    1.507871
     52          7           0       -3.495235   -0.148745    1.697861
     53          1           0       -6.008566    3.726830   -1.566634
     54          1           0       -4.697403    3.659168   -0.597933
     55          1           0       -6.186480    3.420900    0.026534
     56          1           0       -3.097326   -3.097280   -1.713998
     57          1           0       -4.772938   -2.805091   -1.844461
     58          7           0       -3.854897   -2.445681   -1.673481
     59          6           0       -3.651060   -1.154651   -1.403527
     60          6           0       -4.313365    1.102446   -1.044909
     61          7           0       -3.069601    1.557032   -0.819457
     62          1           0       -1.148231    0.847901   -0.741508
     63          6           0       -2.186226    0.564997   -0.911180
     64          7           0       -2.388394   -0.728700   -1.181456
     65          1           0       -7.526450    1.237757   -1.376480
     66          6           0       -6.482070    0.929652   -1.319291
     67          7           0       -6.055168   -0.295271   -1.506410
     68          6           0       -4.681734   -0.199666   -1.335288
     69          6           0       -5.603168    3.274138   -0.772463
     70          7           0       -5.481572    1.827164   -1.036074
 ---------------------------------------------------------------------

 SCF Done:  E(RwB97XD) =  -2048.68590327     A.U. after   15 cycles

 The electronic state is 1-A.
 Alpha  occ. eigenvalues --  -19.25036 -19.21305 -19.20574 -14.52879 -14.51607
 Alpha  occ. eigenvalues --  -14.49039 -14.48794 -14.48661 -14.47180 -14.46652
 Alpha  occ. eigenvalues --  -14.46436 -14.45998 -14.44762 -14.44505 -14.43029
 Alpha  occ. eigenvalues --  -14.41643 -14.41350 -14.41299 -14.41093 -14.40764
 Alpha  occ. eigenvalues --  -10.44707 -10.40948 -10.40543 -10.39419 -10.38496
 Alpha  occ. eigenvalues --  -10.38164 -10.37763 -10.37036 -10.36382 -10.35924
 Alpha  occ. eigenvalues --  -10.34501 -10.34377 -10.34048 -10.33779 -10.33519
 Alpha  occ. eigenvalues --  -10.33226 -10.33114 -10.33016 -10.31363 -10.31236
 Alpha  occ. eigenvalues --  -10.30406 -10.28646 -10.28204  -1.18928  -1.16101
 Alpha  occ. eigenvalues --   -1.13261  -1.12353  -1.11401  -1.10737  -1.09880
 Alpha  occ. eigenvalues --   -1.08659  -1.08514  -1.05556  -1.05452  -1.01768
 Alpha  occ. eigenvalues --   -1.01595  -1.01034  -0.99680  -0.98529  -0.97540
 Alpha  occ. eigenvalues --   -0.97105  -0.96777  -0.93268  -0.90293  -0.88438
 Alpha  occ. eigenvalues --   -0.86503  -0.84544  -0.84014  -0.82904  -0.82719
 Alpha  occ. eigenvalues --   -0.82591  -0.78162  -0.77670  -0.75538  -0.74738
 Alpha  occ. eigenvalues --   -0.73768  -0.73164  -0.72672  -0.71492  -0.71026
 Alpha  occ. eigenvalues --   -0.67491  -0.67364  -0.66686  -0.66067  -0.64903
 Alpha  occ. eigenvalues --   -0.64371  -0.63829  -0.63191  -0.62595  -0.62108
 Alpha  occ. eigenvalues --   -0.61835  -0.61106  -0.60942  -0.60114  -0.59040
 Alpha  occ. eigenvalues --   -0.58663  -0.58424  -0.58164  -0.57047  -0.56351
 Alpha  occ. eigenvalues --   -0.55934  -0.55755  -0.55603  -0.54852  -0.54658
 Alpha  occ. eigenvalues --   -0.54240  -0.53987  -0.53452  -0.53152  -0.52948
 Alpha  occ. eigenvalues --   -0.52096  -0.51948  -0.51754  -0.51023  -0.50587
 Alpha  occ. eigenvalues --   -0.50175  -0.49805  -0.49386  -0.49261  -0.48919
 Alpha  occ. eigenvalues --   -0.48519  -0.48357  -0.48088  -0.47712  -0.47360
 Alpha  occ. eigenvalues --   -0.46990  -0.45416  -0.45258  -0.44830  -0.41946
 Alpha  occ. eigenvalues --   -0.41295  -0.41185  -0.38917  -0.38167  -0.38028
 Alpha  occ. eigenvalues --   -0.37877  -0.37187  -0.36583  -0.35642  -0.35200
 Alpha  occ. eigenvalues --   -0.34873  -0.34455  -0.33809  -0.33260  -0.32908
 Alpha  occ. eigenvalues --   -0.32724  -0.32422  -0.31876  -0.31090  -0.30915
 Alpha  occ. eigenvalues --   -0.30312  -0.30289  -0.26225  -0.25205
 Alpha virt. eigenvalues --    0.03351   0.03798   0.06507   0.06757   0.08521
 Alpha virt. eigenvalues --    0.09155   0.09738   0.09859   0.11282   0.12741
 Alpha virt. eigenvalues --    0.12873   0.13676   0.14212   0.14306   0.14763

 Mulliken charges:
               1
     1  N   -0.302456
     2  C    0.184654
     3  C    0.072855
     4  N   -0.258745
     5  C    0.144115
     6  H    0.026743
     7  N   -0.277195
     8  C    0.130499
     9  H    0.008283
    10  N   -0.268038
    11  C    0.231417
    12  C    0.068406
    13  N   -0.054856
    14  H    0.110584
    15  H    0.082797
    16  H    0.028210
    17  H    0.025424
    18  H    0.014342
    19  N   -0.289201
    20  C    0.243453
    21  C    0.188640
    22  N   -0.094560
    23  H    0.122016
    24  H    0.118383
    25  N   -0.259477
    26  C    0.139112
    27  N   -0.091573
    28  H    0.117228
    29  C    0.158573
    30  O   -0.319735
    31  C    0.005778
    32  N   -0.210851
    33  C    0.087792
    34  H    0.026890
    35  H    0.009431
    36  H    0.033642
    37  H    0.024347
    38  H    0.054873
    39  H    0.039680
    40  H    0.082213
    41  H    0.024931
    42  C   -0.100022
    43  O   -0.267718
    44  C    0.174478
    45  H    0.129611
    46  N   -0.116460
    47  O   -0.342497
    48  C    0.322986
    49  H    0.045298
    50  C    0.158823
    51  C    0.064106
    52  N   -0.275559
    53  H    0.038744
    54  H    0.042245
    55  H    0.028753
    56  H    0.122142
    57  H    0.120348
    58  N   -0.060592
    59  C    0.105582
    60  C    0.188409
    61  N   -0.258505
    62  H    0.004123
    63  C    0.194280
    64  N   -0.307751
    65  H    0.036855
    66  C    0.122311
    67  N   -0.246123
    68  C    0.025998
    69  C    0.179162
    70  N   -0.307654
 Sum of Mulliken charges =  -0.00000

 Dipole moment (field-independent basis, Debye):
    X=             -6.2460    Y=              7.3800    Z=             -3.0171  Tot=             10.1282
 Quadrupole moment (field-independent basis, Debye-Ang):
   XX=           -151.0094   YY=           -230.9014   ZZ=           -256.9604
   XY=             -2.1981   XZ=             -9.2396   YZ=             16.3902

 Normal termination of Gaussian 16 at Sat Jan 20 20:31:39 2018.
