 Gaussian 16, Revision A.03,
 Gaussian 16:  EM64L-G16RevA.03 25-Dec-2016

 ---------------------------------------
 #p wb97xd/cc-pvdz sp scf=(maxcycles=20)
 ---------------------------------------

 ------------------
 Base pair stacking
 ------------------
 Symbolic Z-matrix:
 Charge =  0 Multiplicity = 1

                         Standard orientation:
 ---------------------------------------------------------------------
 Center     Atomic      Atomic             Coordinates (Angstroms)
 Number     Number       Type             X           Y           Z
 ---------------------------------------------------------------------
      1          7           0        5.177787   -1.406879   -1.415201
      2          6           0        6.517212   -0.828483   -1.637443
      3          6           0        3.001040   -1.683153   -1.264437
      4          7           0        3.572134   -2.893062   -0.897455
      5          6           0        4.860689   -2.678197   -1.002975
      6          1           0        5.632199   -3.418882   -0.790567
      7          7           0        1.437565    0.012790   -1.756683
      8          6           0        2.486679    0.793615   -2.034665
      9          1           0        2.241601    1.807253   -2.348889
     10          7           0        3.786950    0.511620   -1.983018
     11          6           0        3.978241   -0.757399   -1.586273
     12          6           0        1.663243   -1.258777   -1.360135
     13          7           0        0.617291   -2.039756   -1.082196
     14          1           0        0.737352   -2.987691   -0.785170
     15          1           0       -0.321442   -1.704121   -1.161342
     16          1           0        6.995927   -1.353525   -2.341243
     17          1           0        6.425718    0.121115   -1.935821
     18          1           0        7.041419   -0.859651   -0.786425
     19          7           0        4.859756    1.552943    1.039221
     20          6           0        3.488854    1.644641    1.022816
     21          6           0        5.791718    2.618926    0.619915
     22          7           0        0.603618    3.463540    0.367997
     23          1           0       -0.384607    3.327847    0.433156
     24          1           0        0.918379    4.349285    0.025813
     25          7           0        2.768659    2.715345    0.624099
     26          6           0        1.468632    2.501549    0.723276
     27          7           0        0.914270    1.329589    1.177903
     28          1           0       -0.090519    1.254877    1.220030
     29          6           0        1.636013    0.214978    1.593356
     30          8           0        1.038125   -0.794321    1.986514
     31          6           0        3.034105    0.429580    1.492535
     32          7           0        4.098115   -0.408077    1.797698
     33          6           0        5.158140    0.298923    1.513598
     34          1           0        6.185478   -0.047322    1.631776
     35          1           0        6.357198    2.291188   -0.136153
     36          1           0        5.269635    3.417175    0.322448
     37          1           0        6.377862    2.872863    1.388532
     38          1           0       -5.134831    1.285700    0.582242
     39          1           0       -5.142099    1.644263    2.307360
     40          1           0       -3.811896    2.208776    1.295796
     41          1           0       -4.315379   -3.094435    2.395953
     42          6           0       -3.776313   -2.166364    2.205325
     43          8           0       -1.630029   -3.153611    2.419571
     44          6           0       -2.345326   -2.173613    2.212863
     45          1           0       -0.753416   -0.913068    1.957567
     46          7           0       -1.763127   -0.947799    1.960528
     47          8           0       -1.803092    1.275248    1.498297
     48          6           0       -2.406716    0.238452    1.711254
     49          1           0       -5.519709   -0.966184    1.948519
     50          6           0       -4.432231   -1.024972    1.965313
     51          6           0       -4.516883    1.407301    1.459418
     52          7           0       -3.785719    0.164402    1.720830
     53          1           0       -5.749917    3.182529   -2.744161
     54          1           0       -4.431570    3.412372   -1.810762
     55          1           0       -5.914930    3.368579   -1.131220
     56          1           0       -2.805247   -3.363087   -0.860193
     57          1           0       -4.483206   -3.128069   -1.058429
     58          7           0       -3.565802   -2.731430   -1.010871
     59          6           0       -3.366601   -1.418378   -1.142670
     60          6           0       -4.037767    0.840462   -1.472717
     61          7           0       -2.794753    1.345118   -1.404493
     62          1           0       -0.869297    0.697301   -1.133215
     63          6           0       -1.907022    0.373702   -1.201486
     64          7           0       -2.104562   -0.941997   -1.069224
     65          1           0       -7.253780    0.861309   -1.802902
     66          6           0       -6.207459    0.587400   -1.664537
     67          7           0       -5.775697   -0.636024   -1.478815
     68          6           0       -4.401592   -0.489753   -1.355713
     69          6           0       -5.336593    2.990255   -1.854109
     70          7           0       -5.209533    1.531235   -1.672152
 ---------------------------------------------------------------------

 SCF Done:  E(RwB97XD) =  -2048.74991490     A.U. after   15 cycles

 The electronic state is 1-A.
 Alpha  occ. eigenvalues --  -19.25292 -19.21659 -19.20543 -14.52655 -14.51922
 Alpha  occ. eigenvalues --  -14.48850 -14.48766 -14.48200 -14.47343 -14.46689
 Alpha  occ. eigenvalues --  -14.46579 -14.45693 -14.44549 -14.44471 -14.42666
 Alpha  occ. eigenvalues --  -14.41911 -14.41266 -14.41199 -14.41077 -14.40656
 Alpha  occ. eigenvalues --  -10.44923 -10.41124 -10.40107 -10.39730 -10.38170
 Alpha  occ. eigenvalues --  -10.38169 -10.37362 -10.37206 -10.36068 -10.35738
 Alpha  occ. eigenvalues --  -10.34536 -10.34359 -10.34185 -10.34021 -10.33565
 Alpha  occ. eigenvalues --  -10.33472 -10.33322 -10.32835 -10.31340 -10.30958
 Alpha  occ. eigenvalues --  -10.30675 -10.28626 -10.28141  -1.18975  -1.15511
 Alpha  occ. eigenvalues --   -1.13125  -1.12650  -1.11341  -1.10609  -1.09492
 Alpha  occ. eigenvalues --   -1.08831  -1.08475  -1.05336  -1.04953  -1.02022
 Alpha  occ. eigenvalues --   -1.01198  -1.00718  -0.99637  -0.98477  -0.97155
 Alpha  occ. eigenvalues --   -0.96921  -0.96626  -0.93026  -0.90567  -0.87865
 Alpha  occ. eigenvalues --   -0.86145  -0.84174  -0.84058  -0.83198  -0.82584
 Alpha  occ. eigenvalues --   -0.82479  -0.78389  -0.77233  -0.75040  -0.74626
 Alpha  occ. eigenvalues --   -0.73544  -0.73096  -0.72904  -0.71253  -0.70573
 Alpha  occ. eigenvalues --   -0.67344  -0.66959  -0.66512  -0.66105  -0.64415
 Alpha  occ. eigenvalues --   -0.64286  -0.63615  -0.62951  -0.62554  -0.61754
 Alpha  occ. eigenvalues --   -0.61479  -0.60730  -0.60575  -0.59676  -0.59066
 Alpha  occ. eigenvalues --   -0.58641  -0.58304  -0.57354  -0.56796  -0.56024
 Alpha  occ. eigenvalues --   -0.55845  -0.55644  -0.55450  -0.54135  -0.53968
 Alpha  occ. eigenvalues --   -0.53820  -0.53746  -0.53448  -0.53312  -0.53003
 Alpha  occ. eigenvalues --   -0.52904  -0.52008  -0.51999  -0.50769  -0.50451
 Alpha  occ. eigenvalues --   -0.50200  -0.50056  -0.49203  -0.49131  -0.48820
 Alpha  occ. eigenvalues --   -0.48567  -0.48467  -0.48240  -0.47717  -0.47161
 Alpha  occ. eigenvalues --   -0.47103  -0.45976  -0.45227  -0.44875  -0.42832
 Alpha  occ. eigenvalues --   -0.41208  -0.40938  -0.38997  -0.38007  -0.37785
 Alpha  occ. eigenvalues --   -0.37325  -0.37200  -0.37147  -0.35998  -0.34853
 Alpha  occ. eigenvalues --   -0.34455  -0.34148  -0.33689  -0.33370  -0.32950
 Alpha  occ. eigenvalues --   -0.32604  -0.32431  -0.31833  -0.31701  -0.31027
 Alpha  occ. eigenvalues --   -0.30683  -0.29791  -0.26089  -0.25352
 Alpha virt. eigenvalues --    0.03412   0.03798   0.07008   0.07733   0.08773
 Alpha virt. eigenvalues --    0.09071   0.09742   0.10234   0.10797   0.12578
 Alpha virt. eigenvalues --    0.12895   0.13685   0.14188   0.14359   0.14550

 Mulliken charges:
               1
     1  N   -0.304037
     2  C    0.175739
     3  C    0.070155
     4  N   -0.255014
     5  C    0.141442
     6  H    0.026319
     7  N   -0.287408
     8  C    0.131025
     9  H    0.011966
    10  N   -0.279964
    11  C    0.230132
    12  C    0.078055
    13  N   -0.048078
    14  H    0.112555
    15  H    0.083685
    16  H    0.028181
    17  H    0.034696
    18  H    0.016676
    19  N   -0.298303
    20  C    0.257502
    21  C    0.185533
    22  N   -0.120778
    23  H    0.119927
    24  H    0.117475
    25  N   -0.301373
    26  C    0.234202
    27  N   -0.130576
    28  H    0.114519
    29  C    0.178083
    30  O   -0.321843
    31  C   -0.014560
    32  N   -0.216432
    33  C    0.106377
    34  H    0.020417
    35  H    0.019851
    36  H    0.031380
    37  H    0.022895
    38  H    0.052403
    39  H    0.056398
    40  H    0.075073
    41  H    0.022865
    42  C   -0.098431
    43  O   -0.269664
    44  C    0.166560
    45  H    0.129321
    46  N   -0.112210
    47  O   -0.342866
    48  C    0.333219
    49  H    0.045404
    50  C    0.162209
    51  C    0.052127
    52  N   -0.276841
    53  H    0.036197
    54  H    0.041286
    55  H    0.024714
    56  H    0.125069
    57  H    0.117416
    58  N   -0.056192
    59  C    0.091066
    60  C    0.191061
    61  N   -0.257767
    62  H    0.021246
    63  C    0.166633
    64  N   -0.302831
    65  H    0.035417
    66  C    0.117147
    67  N   -0.249633
    68  C    0.045891
    69  C    0.181235
    70  N   -0.293941
 Sum of Mulliken charges =  -0.00000

 Dipole moment (field-independent basis, Debye):
    X=             -6.2425    Y=              6.9616    Z=             -3.0402  Tot=              9.8324
 Quadrupole moment (field-independent basis, Debye-Ang):
   XX=           -149.6859   YY=           -225.8226   ZZ=           -258.4967
   XY=             -6.0652   XZ=             -5.3132   YZ=             10.2219

 Normal termination of Gaussian 16 at Sun Jan 21 00:06:53 2018.
