 Gaussian 16, Revision A.03,
 Gaussian 16:  EM64L-G16RevA.03 25-Dec-2016

 ---------------------------------------
 #p wb97xd/cc-pvdz sp scf=(maxcycles=20)
 ---------------------------------------

 ------------------
 Base pair stacking
 ------------------
 Symbolic Z-matrix:
 Charge =  0 Multiplicity = 1

                         Standard orientation:
 ---------------------------------------------------------------------
 Center     Atomic      Atomic             Coordinates (Angstroms)
 Number     Number       Type             X           Y           Z
 ---------------------------------------------------------------------
      1          7           0       -7.079590   -0.948917    0.194568
      2          6           0       -8.371253   -0.256760    0.019797
      3          6           0       -4.951641   -1.381190    0.544278
      4          7           0       -5.565614   -2.605915    0.325609
      5          6           0       -6.823055   -2.296462    0.123668
      6          1           0       -7.613663   -3.018302   -0.083277
      7          7           0       -3.340989    0.285038    0.982945
      8          6           0       -4.338458    1.169192    0.878498
      9          1           0       -4.053521    2.210680    1.021267
     10          7           0       -5.628987    0.960971    0.625366
     11          6           0       -5.872136   -0.350558    0.466625
     12          6           0       -3.618057   -1.026869    0.818012
     13          7           0       -2.623703   -1.910977    0.921893
     14          1           0       -2.782880   -2.892176    0.807272
     15          1           0       -1.686269   -1.622850    1.117710
     16          1           0       -9.021782   -0.584074    0.705258
     17          1           0       -8.240076    0.728049    0.129632
     18          1           0       -8.730840   -0.443505   -0.894437
     19          7           0       -2.809999    1.714911   -1.510398
     20          6           0       -1.462589    1.718307   -1.241126
     21          6           0       -3.741293    2.823693   -1.220548
     22          7           0        1.351197    3.326559    0.007036
     23          1           0        2.325225    3.130288    0.116573
     24          1           0        1.029533    4.218730    0.325277
     25          7           0       -0.768585    2.727013   -0.671100
     26          6           0        0.513244    2.434085   -0.541805
     27          7           0        1.074490    1.244867   -0.939658
     28          1           0        2.063990    1.107613   -0.801775
     29          6           0        0.379553    0.193027   -1.528338
     30          8           0        0.981403   -0.838770   -1.850684
     31          6           0       -0.998767    0.492973   -1.673805
     32          7           0       -2.034160   -0.264458   -2.204059
     33          6           0       -3.086563    0.498944   -2.086227
     34          1           0       -4.092543    0.223098   -2.404332
     35          1           0       -4.453913    2.507785   -0.595105
     36          1           0       -3.238483    3.576661   -0.798081
     37          1           0       -4.160597    3.139911   -2.070843
     38          1           0        6.898232    0.795161    0.742651
     39          1           0        7.243201    1.209629   -0.934801
     40          1           0        5.783710    1.823998   -0.157746
     41          1           0        6.179702   -3.461055   -1.382179
     42          6           0        5.668234   -2.507320   -1.251708
     43          8           0        3.545612   -3.347887   -1.895927
     44          6           0        4.265015   -2.422951   -1.519437
     45          1           0        2.727353   -1.072539   -1.501994
     46          7           0        3.716739   -1.171526   -1.322982
     47          8           0        3.796872    1.027851   -0.763066
     48          6           0        4.369629   -0.037722   -0.908562
     49          1           0        7.399752   -1.430076   -0.629438
     50          6           0        6.332391   -1.418726   -0.846138
     51          6           0        6.460189    0.985027   -0.225925
     52          7           0        5.720388   -0.199290   -0.670701
     53          1           0        3.827463    3.159266    2.724885
     54          1           0        2.733030    3.255916    1.518657
     55          1           0        4.303647    2.974760    1.174847
     56          1           0        0.629033   -3.452757    1.668141
     57          1           0        2.257179   -3.280493    2.147242
     58          7           0        1.409195   -2.850025    1.836068
     59          6           0        1.323617   -1.530738    1.653477
     60          6           0        2.148754    0.701024    1.642166
     61          7           0        0.997161    1.251546    1.223616
     62          1           0       -0.901498    0.676080    0.709292
     63          6           0        0.067753    0.314100    1.049561
     64          7           0        0.151508   -1.007759    1.231896
     65          1           0        5.234783    0.601994    2.600697
     66          6           0        4.209306    0.367338    2.313882
     67          7           0        3.696943   -0.838886    2.299631
     68          6           0        2.390831   -0.641531    1.875526
     69          6           0        3.567103    2.800459    1.828528
     70          7           0        3.328047    1.347502    1.927363
 ---------------------------------------------------------------------

 SCF Done:  E(RwB97XD) =  -2048.63378325     A.U. after   15 cycles

 The electronic state is 1-A.
 Alpha  occ. eigenvalues --  -19.26147 -19.21895 -19.20386 -14.52639 -14.51479
 Alpha  occ. eigenvalues --  -14.50036 -14.48234 -14.47875 -14.46887 -14.45791
 Alpha  occ. eigenvalues --  -14.45451 -14.44536 -14.43396 -14.43270 -14.42692
 Alpha  occ. eigenvalues --  -14.42458 -14.42086 -14.41991 -14.41415 -14.40603
 Alpha  occ. eigenvalues --  -10.45686 -10.41013 -10.40015 -10.38641 -10.37899
 Alpha  occ. eigenvalues --  -10.37750 -10.37173 -10.36751 -10.36084 -10.36037
 Alpha  occ. eigenvalues --  -10.35314 -10.34816 -10.34421 -10.34383 -10.34048
 Alpha  occ. eigenvalues --  -10.33777 -10.32958 -10.31986 -10.31529 -10.31060
 Alpha  occ. eigenvalues --  -10.29886 -10.29486 -10.27919  -1.19759  -1.14519
 Alpha  occ. eigenvalues --   -1.13270  -1.12951  -1.12670  -1.10339  -1.09520
 Alpha  occ. eigenvalues --   -1.08848  -1.07918  -1.06414  -1.03740  -1.02542
 Alpha  occ. eigenvalues --   -1.01854  -1.00482  -0.99442  -0.98483  -0.98208
 Alpha  occ. eigenvalues --   -0.96414  -0.95606  -0.94040  -0.91120  -0.87076
 Alpha  occ. eigenvalues --   -0.85700  -0.85384  -0.84174  -0.83866  -0.83554
 Alpha  occ. eigenvalues --   -0.82037  -0.78964  -0.76223  -0.74983  -0.74258
 Alpha  occ. eigenvalues --   -0.73923  -0.73490  -0.73314  -0.72629  -0.69693
 Alpha  occ. eigenvalues --   -0.67733  -0.67625  -0.66662  -0.66101  -0.64552
 Alpha  occ. eigenvalues --   -0.64208  -0.63716  -0.63404  -0.62833  -0.61851
 Alpha  occ. eigenvalues --   -0.61588  -0.60745  -0.59860  -0.59625  -0.59464
 Alpha  occ. eigenvalues --   -0.58840  -0.58403  -0.58211  -0.57577  -0.57297
 Alpha  occ. eigenvalues --   -0.56630  -0.55892  -0.55698  -0.54575  -0.54323
 Alpha  occ. eigenvalues --   -0.54158  -0.53466  -0.53260  -0.52951  -0.52796
 Alpha  occ. eigenvalues --   -0.52361  -0.52239  -0.51936  -0.51421  -0.51029
 Alpha  occ. eigenvalues --   -0.50283  -0.49904  -0.49610  -0.49350  -0.48780
 Alpha  occ. eigenvalues --   -0.48540  -0.48457  -0.48063  -0.47698  -0.47214
 Alpha  occ. eigenvalues --   -0.47093  -0.45984  -0.45655  -0.44090  -0.42630
 Alpha  occ. eigenvalues --   -0.42137  -0.39970  -0.39750  -0.38641  -0.37398
 Alpha  occ. eigenvalues --   -0.37241  -0.37109  -0.35872  -0.35482  -0.34989
 Alpha  occ. eigenvalues --   -0.34814  -0.34726  -0.33107  -0.33048  -0.32669
 Alpha  occ. eigenvalues --   -0.32539  -0.32027  -0.31865  -0.31768  -0.31626
 Alpha  occ. eigenvalues --   -0.30817  -0.27160  -0.27024  -0.25299
 Alpha virt. eigenvalues --    0.03154   0.04351   0.06575   0.08042   0.08393
 Alpha virt. eigenvalues --    0.09029   0.09505   0.09624   0.11465   0.12332
 Alpha virt. eigenvalues --    0.12866   0.13308   0.14464   0.14500   0.14755

 Mulliken charges:
               1
     1  N   -0.312504
     2  C    0.180349
     3  C    0.044887
     4  N   -0.257638
     5  C    0.134327
     6  H    0.030776
     7  N   -0.264222
     8  C    0.130840
     9  H    0.018408
    10  N   -0.297544
    11  C    0.234694
    12  C    0.098368
    13  N   -0.045837
    14  H    0.107381
    15  H    0.087890
    16  H    0.028581
    17  H    0.034989
    18  H    0.028037
    19  N   -0.285907
    20  C    0.217470
    21  C    0.174650
    22  N   -0.067269
    23  H    0.084223
    24  H    0.113925
    25  N   -0.272036
    26  C    0.195513
    27  N   -0.103358
    28  H    0.123205
    29  C    0.123095
    30  O   -0.321009
    31  C    0.019328
    32  N   -0.220466
    33  C    0.113273
    34  H    0.026876
    35  H    0.024359
    36  H    0.025171
    37  H    0.016783
    38  H    0.055475
    39  H    0.067619
    40  H    0.072176
    41  H    0.032129
    42  C   -0.106349
    43  O   -0.265011
    44  C    0.184788
    45  H    0.134006
    46  N   -0.132706
    47  O   -0.350899
    48  C    0.356336
    49  H    0.046678
    50  C    0.174028
    51  C    0.030277
    52  N   -0.289800
    53  H    0.033244
    54  H    0.007215
    55  H    0.023953
    56  H    0.117416
    57  H    0.119321
    58  N   -0.069933
    59  C    0.130599
    60  C    0.216886
    61  N   -0.284350
    62  H    0.074575
    63  C    0.154987
    64  N   -0.302375
    65  H    0.023965
    66  C    0.112205
    67  N   -0.252415
    68  C    0.019781
    69  C    0.180491
    70  N   -0.283922
 Sum of Mulliken charges =  -0.00000

 Dipole moment (field-independent basis, Debye):
    X=              5.1013    Y=              5.6916    Z=              4.5698  Tot=              8.9051
 Quadrupole moment (field-independent basis, Debye-Ang):
   XX=           -137.8039   YY=           -230.3751   ZZ=           -257.4789
   XY=             16.8069   XZ=             16.1140   YZ=            -10.0886

 Normal termination of Gaussian 16 at Sat Jan 20 21:54:44 2018.
