 Gaussian 16, Revision A.03,
 Gaussian 16:  EM64L-G16RevA.03 25-Dec-2016

 ---------------------------------------
 #p wb97xd/cc-pvdz sp scf=(maxcycles=20)
 ---------------------------------------

 ------------------
 Base pair stacking
 ------------------
 Symbolic Z-matrix:
 Charge =  0 Multiplicity = 1

                         Standard orientation:
 ---------------------------------------------------------------------
 Center     Atomic      Atomic             Coordinates (Angstroms)
 Number     Number       Type             X           Y           Z
 ---------------------------------------------------------------------
      1          7           0       -5.790669   -1.524057    0.891290
      2          6           0       -7.128755   -0.987116    1.206305
      3          6           0       -3.614294   -1.811195    0.756213
      4          7           0       -4.188787   -2.867060    0.063499
      5          6           0       -5.476976   -2.651809    0.172604
      6          1           0       -6.250624   -3.289761   -0.255669
      7          7           0       -2.045949   -0.346428    1.734823
      8          6           0       -3.093112    0.363270    2.167672
      9          1           0       -2.845246    1.252503    2.745679
     10          7           0       -4.394375    0.140483    1.994543
     11          6           0       -4.589151   -0.975093    1.272078
     12          6           0       -2.275123   -1.463565    1.010561
     13          7           0       -1.231116   -2.173325    0.577594
     14          1           0       -1.353768   -3.007101    0.038150
     15          1           0       -0.291297   -1.896004    0.777561
     16          1           0       -7.646562   -1.664374    1.729160
     17          1           0       -7.034655   -0.151317    1.746404
     18          1           0       -7.615560   -0.780484    0.357593
     19          7           0       -4.225292    1.965275   -1.089958
     20          6           0       -2.855145    2.010858   -0.996796
     21          6           0       -5.148541    3.016362   -0.617167
     22          7           0        0.040320    3.666089   -0.028189
     23          1           0        1.026524    3.505430   -0.056923
     24          1           0       -0.267670    4.525271    0.381282
     25          7           0       -2.127920    3.015442   -0.462009
     26          6           0       -0.830801    2.770239   -0.516565
     27          7           0       -0.285535    1.629175   -1.053374
     28          1           0        0.717668    1.526490   -1.052530
     29          6           0       -1.014648    0.582541   -1.609090
     30          8           0       -0.424721   -0.403879   -2.067034
     31          6           0       -2.409722    0.831542   -1.557684
     32          7           0       -3.478712    0.061073   -1.994184
     33          6           0       -4.532490    0.771847   -1.696600
     34          1           0       -5.561282    0.471520   -1.898286
     35          1           0       -5.761647    2.637111    0.074986
     36          1           0       -4.621180    3.765772   -0.218997
     37          1           0       -5.686381    3.360404   -1.386049
     38          1           0        5.720510    1.334712   -0.165105
     39          1           0        5.828089    1.854014   -1.845396
     40          1           0        4.462539    2.363075   -0.851667
     41          1           0        4.878108   -2.826127   -2.428824
     42          6           0        4.355318   -1.903329   -2.177097
     43          8           0        2.197087   -2.796396   -2.591282
     44          6           0        2.927036   -1.863792   -2.256318
     45          1           0        1.358922   -0.582403   -1.960692
     46          7           0        2.366074   -0.649156   -1.916845
     47          8           0        2.442390    1.517923   -1.242205
     48          6           0        3.027840    0.486955   -1.523352
     49          1           0        6.114949   -0.789435   -1.720174
     50          6           0        5.028651   -0.811363   -1.796494
     51          6           0        5.152999    1.558343   -1.056163
     52          7           0        4.402897    0.369816   -1.471508
     53          1           0        5.142998    2.256173    3.790984
     54          1           0        3.870895    2.758057    2.901075
     55          1           0        5.381722    2.852437    2.290688
     56          1           0        2.175382   -3.486475    0.146712
     57          1           0        3.846714   -3.357708    0.463232
     58          7           0        2.938998   -2.937299    0.486478
     59          6           0        2.756075   -1.699277    0.950160
     60          6           0        3.449577    0.375567    1.885999
     61          7           0        2.219320    0.914564    1.905254
     62          1           0        0.297122    0.413376    1.400697
     63          6           0        1.325333    0.054714    1.421153
     64          7           0        1.506567   -1.185682    0.956248
     65          1           0        6.647900    0.220880    2.332073
     66          6           0        5.604257    0.021538    2.087092
     67          7           0        5.160774   -1.098534    1.570920
     68          6           0        3.796011   -0.887410    1.438340
     69          6           0        4.765995    2.314514    2.866617
     70          7           0        4.622801    0.957730    2.303905
 ---------------------------------------------------------------------

 SCF Done:  E(RwB97XD) =  -2048.75398746     A.U. after   15 cycles

 The electronic state is 1-A.
 Alpha  occ. eigenvalues --  -19.25697 -19.21863 -19.20621 -14.52301 -14.52195
 Alpha  occ. eigenvalues --  -14.48927 -14.48685 -14.47633 -14.47470 -14.46897
 Alpha  occ. eigenvalues --  -14.46605 -14.45329 -14.43970 -14.43906 -14.42379
 Alpha  occ. eigenvalues --  -14.41969 -14.41399 -14.41173 -14.40856 -14.40413
 Alpha  occ. eigenvalues --  -10.45271 -10.41202 -10.40033 -10.39505 -10.38232
 Alpha  occ. eigenvalues --  -10.37854 -10.37476 -10.36957 -10.35563 -10.35459
 Alpha  occ. eigenvalues --  -10.35202 -10.34287 -10.34126 -10.33907 -10.33480
 Alpha  occ. eigenvalues --  -10.33320 -10.33258 -10.32399 -10.31366 -10.30786
 Alpha  occ. eigenvalues --  -10.30689 -10.28592 -10.28059  -1.19272  -1.15035
 Alpha  occ. eigenvalues --   -1.13172  -1.12939  -1.11450  -1.10531  -1.09114
 Alpha  occ. eigenvalues --   -1.08873  -1.08530  -1.05186  -1.04376  -1.02337
 Alpha  occ. eigenvalues --   -1.00770  -1.00587  -0.99688  -0.98503  -0.97089
 Alpha  occ. eigenvalues --   -0.96510  -0.96426  -0.92852  -0.90790  -0.87422
 Alpha  occ. eigenvalues --   -0.85775  -0.84117  -0.84031  -0.83559  -0.82527
 Alpha  occ. eigenvalues --   -0.82374  -0.78623  -0.76743  -0.74619  -0.74476
 Alpha  occ. eigenvalues --   -0.73595  -0.73192  -0.73039  -0.71199  -0.70088
 Alpha  occ. eigenvalues --   -0.67336  -0.66459  -0.66434  -0.66338  -0.64336
 Alpha  occ. eigenvalues --   -0.63902  -0.63674  -0.62867  -0.62597  -0.61719
 Alpha  occ. eigenvalues --   -0.60925  -0.60489  -0.60172  -0.59264  -0.59201
 Alpha  occ. eigenvalues --   -0.58632  -0.58315  -0.56975  -0.56732  -0.56259
 Alpha  occ. eigenvalues --   -0.55838  -0.55611  -0.55098  -0.54509  -0.54192
 Alpha  occ. eigenvalues --   -0.53676  -0.53540  -0.53272  -0.53129  -0.52874
 Alpha  occ. eigenvalues --   -0.52562  -0.52374  -0.52009  -0.50971  -0.50420
 Alpha  occ. eigenvalues --   -0.50092  -0.49760  -0.49350  -0.49032  -0.48989
 Alpha  occ. eigenvalues --   -0.48742  -0.48330  -0.48076  -0.47443  -0.47330
 Alpha  occ. eigenvalues --   -0.47101  -0.45840  -0.45008  -0.44505  -0.43425
 Alpha  occ. eigenvalues --   -0.41249  -0.40463  -0.39297  -0.37583  -0.37301
 Alpha  occ. eigenvalues --   -0.37270  -0.37230  -0.37179  -0.36096  -0.34457
 Alpha  occ. eigenvalues --   -0.34157  -0.34003  -0.33537  -0.33489  -0.33122
 Alpha  occ. eigenvalues --   -0.32605  -0.32309  -0.31888  -0.31850  -0.31048
 Alpha  occ. eigenvalues --   -0.30620  -0.29375  -0.25821  -0.25404
 Alpha virt. eigenvalues --    0.03394   0.04198   0.07351   0.07683   0.08372
 Alpha virt. eigenvalues --    0.09079   0.09815   0.10604   0.10966   0.12020
 Alpha virt. eigenvalues --    0.13197   0.13775   0.14141   0.14526   0.15012

 Mulliken charges:
               1
     1  N   -0.309308
     2  C    0.178379
     3  C    0.067277
     4  N   -0.251773
     5  C    0.131408
     6  H    0.026130
     7  N   -0.292031
     8  C    0.135778
     9  H    0.012285
    10  N   -0.289326
    11  C    0.228854
    12  C    0.095601
    13  N   -0.046393
    14  H    0.112274
    15  H    0.086762
    16  H    0.027505
    17  H    0.033670
    18  H    0.021201
    19  N   -0.301243
    20  C    0.254505
    21  C    0.182704
    22  N   -0.119026
    23  H    0.116189
    24  H    0.117445
    25  N   -0.308159
    26  C    0.238743
    27  N   -0.145694
    28  H    0.121861
    29  C    0.185528
    30  O   -0.324708
    31  C   -0.017699
    32  N   -0.218837
    33  C    0.125327
    34  H    0.018001
    35  H    0.025945
    36  H    0.028879
    37  H    0.021673
    38  H    0.049998
    39  H    0.061421
    40  H    0.074128
    41  H    0.022877
    42  C   -0.110305
    43  O   -0.274036
    44  C    0.160326
    45  H    0.132284
    46  N   -0.112563
    47  O   -0.342099
    48  C    0.336024
    49  H    0.044967
    50  C    0.179338
    51  C    0.041845
    52  N   -0.277761
    53  H    0.034615
    54  H    0.040589
    55  H    0.021267
    56  H    0.127018
    57  H    0.117391
    58  N   -0.050392
    59  C    0.090146
    60  C    0.233005
    61  N   -0.267513
    62  H    0.034726
    63  C    0.156194
    64  N   -0.299277
    65  H    0.035686
    66  C    0.111864
    67  N   -0.253356
    68  C    0.032687
    69  C    0.182746
    70  N   -0.303568
 Sum of Mulliken charges =  -0.00000

 Dipole moment (field-independent basis, Debye):
    X=              6.2813    Y=              6.4054    Z=              3.6401  Tot=              9.6816
 Quadrupole moment (field-independent basis, Debye-Ang):
   XX=           -146.8503   YY=           -224.0054   ZZ=           -258.4931
   XY=              8.5440   XZ=              4.3999   YZ=             -3.1763

 Normal termination of Gaussian 16 at Sat Jan 20 22:53:48 2018.
