 Gaussian 16, Revision A.03,
 Gaussian 16:  EM64L-G16RevA.03 25-Dec-2016

 ---------------------------------------
 #p wb97xd/cc-pvdz sp scf=(maxcycles=20)
 ---------------------------------------

 ------------------
 Base pair stacking
 ------------------
 Symbolic Z-matrix:
 Charge =  0 Multiplicity = 1

                         Standard orientation:
 ---------------------------------------------------------------------
 Center     Atomic      Atomic             Coordinates (Angstroms)
 Number     Number       Type             X           Y           Z
 ---------------------------------------------------------------------
      1          7           0       -6.085331   -1.413109    0.719313
      2          6           0       -7.421574   -0.848441    0.990632
      3          6           0       -3.911681   -1.741043    0.648522
      4          7           0       -4.485971   -2.794426   -0.048101
      5          6           0       -5.772540   -2.554697    0.022423
      6          1           0       -6.545560   -3.183567   -0.420182
      7          7           0       -2.344538   -0.293419    1.654190
      8          6           0       -3.390125    0.440097    2.049512
      9          1           0       -3.142137    1.331436    2.624209
     10          7           0       -4.689941    0.238810    1.842499
     11          6           0       -4.884991   -0.881481    1.127430
     12          6           0       -2.573945   -1.414674    0.936387
     13          7           0       -1.531510   -2.148196    0.540859
     14          1           0       -1.654400   -2.985902    0.007593
     15          1           0       -0.592691   -1.885547    0.763965
     16          1           0       -7.966080   -1.510055    1.506345
     17          1           0       -7.327209   -0.008184    1.523731
     18          1           0       -7.880699   -0.643040    0.126339
     19          7           0       -3.904981    2.032755   -1.202913
     20          6           0       -2.537351    2.054710   -1.071904
     21          6           0       -4.821558    3.105822   -0.768028
     22          7           0        0.359967    3.668675   -0.041176
     23          1           0        1.343471    3.489913   -0.040437
     24          1           0        0.056529    4.538028    0.349830
     25          7           0       -1.806949    3.052210   -0.528256
     26          6           0       -0.513545    2.783022   -0.543680
     27          7           0        0.025393    1.626074   -1.052127
     28          1           0        1.026128    1.505317   -1.022008
     29          6           0       -0.707070    0.586308   -1.616267
     30          8           0       -0.122849   -0.415910   -2.046380
     31          6           0       -2.098231    0.861025   -1.606792
     32          7           0       -3.168634    0.104902   -2.064409
     33          6           0       -4.217045    0.838030   -1.804475
     34          1           0       -5.245178    0.553976   -2.031531
     35          1           0       -5.460546    2.745858   -0.089124
     36          1           0       -4.291802    3.850218   -0.363678
     37          1           0       -5.331387    3.450459   -1.555502
     38          1           0        5.997984    1.233714    0.007404
     39          1           0        6.161793    1.731219   -1.674950
     40          1           0        4.778699    2.276469   -0.725666
     41          1           0        5.142597   -2.937542   -2.232136
     42          6           0        4.630044   -2.002566   -2.005549
     43          8           0        2.468132   -2.861341   -2.470007
     44          6           0        3.205486   -1.938192   -2.125215
     45          1           0        1.653565   -0.625333   -1.888082
     46          7           0        2.657697   -0.709734   -1.815274
     47          8           0        2.755019    1.463392   -1.163154
     48          6           0        3.329021    0.418800   -1.416174
     49          1           0        6.396452   -0.915326   -1.512028
     50          6           0        5.312479   -0.918538   -1.618527
     51          6           0        5.459688    1.457068   -0.901669
     52          7           0        4.699728    0.277478   -1.324504
     53          1           0        4.831019    2.202980    3.881692
     54          1           0        3.593593    2.717262    2.950881
     55          1           0        5.122297    2.777183    2.382063
     56          1           0        1.860962   -3.527582    0.220420
     57          1           0        3.524916   -3.425285    0.582200
     58          7           0        2.624788   -2.988324    0.575265
     59          6           0        2.451797   -1.741838    1.019706
     60          6           0        3.156996    0.330996    1.951240
     61          7           0        1.936789    0.892301    1.929934
     62          1           0        0.020492    0.419992    1.377357
     63          6           0        1.040965    0.043103    1.430658
     64          7           0        1.212257   -1.205743    0.984983
     65          1           0        6.338291    0.123866    2.488494
     66          6           0        5.298381   -0.059472    2.216609
     67          7           0        4.848932   -1.177344    1.700829
     68          6           0        3.492495   -0.943196    1.527680
     69          6           0        4.481008    2.257260    2.946524
     70          7           0        4.328627    0.896765    2.395302
 ---------------------------------------------------------------------

 SCF Done:  E(RwB97XD) =  -2048.75425006     A.U. after   15 cycles

 The electronic state is 1-A.
 Alpha  occ. eigenvalues --  -19.25799 -19.21887 -19.20612 -14.52338 -14.52097
 Alpha  occ. eigenvalues --  -14.49089 -14.48615 -14.47726 -14.47160 -14.46871
 Alpha  occ. eigenvalues --  -14.46550 -14.45103 -14.43712 -14.43593 -14.42454
 Alpha  occ. eigenvalues --  -14.41929 -14.41595 -14.41303 -14.40759 -14.40498
 Alpha  occ. eigenvalues --  -10.45407 -10.41144 -10.40075 -10.39248 -10.38190
 Alpha  occ. eigenvalues --  -10.37634 -10.37623 -10.36726 -10.35671 -10.35399
 Alpha  occ. eigenvalues --  -10.35245 -10.34295 -10.34210 -10.33792 -10.33619
 Alpha  occ. eigenvalues --  -10.33376 -10.33238 -10.32118 -10.31434 -10.30825
 Alpha  occ. eigenvalues --  -10.30534 -10.28737 -10.27984  -1.19378  -1.14794
 Alpha  occ. eigenvalues --   -1.13145  -1.12980  -1.11621  -1.10476  -1.09222
 Alpha  occ. eigenvalues --   -1.08579  -1.08494  -1.05291  -1.04101  -1.02427
 Alpha  occ. eigenvalues --   -1.00702  -1.00538  -0.99644  -0.98462  -0.97228
 Alpha  occ. eigenvalues --   -0.96432  -0.96154  -0.92950  -0.90876  -0.87205
 Alpha  occ. eigenvalues --   -0.85593  -0.84248  -0.83955  -0.83693  -0.82635
 Alpha  occ. eigenvalues --   -0.82277  -0.78728  -0.76499  -0.74535  -0.74253
 Alpha  occ. eigenvalues --   -0.73560  -0.73273  -0.73161  -0.71326  -0.69852
 Alpha  occ. eigenvalues --   -0.67287  -0.66569  -0.66445  -0.66177  -0.64367
 Alpha  occ. eigenvalues --   -0.63683  -0.63648  -0.62968  -0.62583  -0.61658
 Alpha  occ. eigenvalues --   -0.60779  -0.60531  -0.59971  -0.59348  -0.59016
 Alpha  occ. eigenvalues --   -0.58574  -0.58265  -0.56977  -0.56827  -0.56289
 Alpha  occ. eigenvalues --   -0.55888  -0.55679  -0.54932  -0.54654  -0.54270
 Alpha  occ. eigenvalues --   -0.53645  -0.53518  -0.53043  -0.52911  -0.52817
 Alpha  occ. eigenvalues --   -0.52486  -0.52331  -0.52102  -0.51105  -0.50515
 Alpha  occ. eigenvalues --   -0.50049  -0.49631  -0.49398  -0.49115  -0.49003
 Alpha  occ. eigenvalues --   -0.48714  -0.48294  -0.47980  -0.47422  -0.47337
 Alpha  occ. eigenvalues --   -0.47225  -0.45626  -0.45172  -0.44144  -0.43637
 Alpha  occ. eigenvalues --   -0.41437  -0.40239  -0.39376  -0.37441  -0.37267
 Alpha  occ. eigenvalues --   -0.37214  -0.37178  -0.37017  -0.35970  -0.34360
 Alpha  occ. eigenvalues --   -0.34055  -0.33867  -0.33614  -0.33571  -0.33150
 Alpha  occ. eigenvalues --   -0.32592  -0.32268  -0.31846  -0.31820  -0.31197
 Alpha  occ. eigenvalues --   -0.30718  -0.29259  -0.25956  -0.25313
 Alpha virt. eigenvalues --    0.03197   0.04539   0.07573   0.07677   0.08296
 Alpha virt. eigenvalues --    0.08973   0.09844   0.10720   0.10910   0.11791
 Alpha virt. eigenvalues --    0.13228   0.13893   0.14201   0.14568   0.15106

 Mulliken charges:
               1
     1  N   -0.310201
     2  C    0.179318
     3  C    0.062545
     4  N   -0.252519
     5  C    0.129318
     6  H    0.026704
     7  N   -0.288926
     8  C    0.134889
     9  H    0.013541
    10  N   -0.290186
    11  C    0.228263
    12  C    0.098901
    13  N   -0.044953
    14  H    0.111646
    15  H    0.089823
    16  H    0.027601
    17  H    0.033641
    18  H    0.022495
    19  N   -0.302053
    20  C    0.254384
    21  C    0.181834
    22  N   -0.116801
    23  H    0.114427
    24  H    0.116872
    25  N   -0.307266
    26  C    0.235964
    27  N   -0.145347
    28  H    0.123860
    29  C    0.178392
    30  O   -0.324921
    31  C   -0.013565
    32  N   -0.220884
    33  C    0.128195
    34  H    0.019965
    35  H    0.026248
    36  H    0.027912
    37  H    0.021266
    38  H    0.047767
    39  H    0.061789
    40  H    0.074072
    41  H    0.025122
    42  C   -0.110685
    43  O   -0.275114
    44  C    0.162079
    45  H    0.134511
    46  N   -0.119579
    47  O   -0.342467
    48  C    0.341089
    49  H    0.044854
    50  C    0.184923
    51  C    0.041477
    52  N   -0.279118
    53  H    0.034153
    54  H    0.039916
    55  H    0.020383
    56  H    0.126442
    57  H    0.117402
    58  N   -0.049111
    59  C    0.101065
    60  C    0.242064
    61  N   -0.271558
    62  H    0.037662
    63  C    0.153936
    64  N   -0.301924
    65  H    0.035212
    66  C    0.111522
    67  N   -0.251507
    68  C    0.015410
    69  C    0.182257
    70  N   -0.304419
 Sum of Mulliken charges =  -0.00000

 Dipole moment (field-independent basis, Debye):
    X=              6.2563    Y=              6.2206    Z=              3.6506  Tot=              9.5480
 Quadrupole moment (field-independent basis, Debye-Ang):
   XX=           -145.4879   YY=           -224.3779   ZZ=           -257.9425
   XY=              9.3072   XZ=              7.9174   YZ=             -3.2168

 Normal termination of Gaussian 16 at Sat Jan 20 23:30:21 2018.
