 Gaussian 16, Revision A.03,
 Gaussian 16:  EM64L-G16RevA.03 25-Dec-2016

 ---------------------------------------
 #p wb97xd/cc-pvdz sp scf=(maxcycles=20)
 ---------------------------------------

 ------------------
 Base pair stacking
 ------------------
 Symbolic Z-matrix:
 Charge =  0 Multiplicity = 1

                         Standard orientation:
 ---------------------------------------------------------------------
 Center     Atomic      Atomic             Coordinates (Angstroms)
 Number     Number       Type             X           Y           Z
 ---------------------------------------------------------------------
      1          7           0       -6.927071   -1.124986    0.190732
      2          6           0       -8.257930   -0.544965    0.456029
      3          6           0       -4.764954   -1.528073    0.199693
      4          7           0       -5.330832   -2.464781   -0.653009
      5          6           0       -6.610778   -2.184447   -0.624276
      6          1           0       -7.376190   -2.723267   -1.183520
      7          7           0       -3.214052   -0.277665    1.462268
      8          6           0       -4.256801    0.443097    1.887419
      9          1           0       -4.014516    1.246982    2.581192
     10          7           0       -5.547855    0.320500    1.585654
     11          6           0       -5.736456   -0.695405    0.727282
     12          6           0       -3.436801   -1.292819    0.599173
     13          7           0       -2.397192   -2.013436    0.173649
     14          1           0       -2.515389   -2.774165   -0.465520
     15          1           0       -1.465253   -1.817585    0.479072
     16          1           0       -8.853559   -1.242422    0.854739
     17          1           0       -8.168091    0.219458    1.093783
     18          1           0       -8.657756   -0.217418   -0.400028
     19          7           0       -2.928780    2.315002   -1.358129
     20          6           0       -1.571498    2.261724   -1.150785
     21          6           0       -3.799229    3.459956   -1.023296
     22          7           0        1.360392    3.747282   -0.028775
     23          1           0        2.329448    3.510584    0.035599
     24          1           0        1.090758    4.650572    0.306001
     25          7           0       -0.811103    3.238522   -0.610664
     26          6           0        0.462081    2.892460   -0.540866
     27          7           0        0.954935    1.682866   -0.966853
     28          1           0        1.943172    1.504363   -0.874724
     29          6           0        0.190967    0.663089   -1.525673
     30          8           0        0.734309   -0.391223   -1.877718
     31          6           0       -1.178969    1.020189   -1.607198
     32          7           0       -2.267904    0.308354   -2.091345
     33          6           0       -3.281373    1.113953   -1.923647
     34          1           0       -4.311358    0.881163   -2.196063
     35          1           0       -4.495033    3.170981   -0.366672
     36          1           0       -3.246966    4.189741   -0.622448
     37          1           0       -4.243449    3.796846   -1.852741
     38          1           0        6.825762    0.986350    0.446144
     39          1           0        7.110706    1.393487   -1.244329
     40          1           0        5.714839    2.064103   -0.399831
     41          1           0        5.835669   -3.227455   -1.653885
     42          6           0        5.370571   -2.254028   -1.497845
     43          8           0        3.187821   -3.003637   -2.046297
     44          6           0        3.961285   -2.110761   -1.700886
     45          1           0        2.483180   -0.698229   -1.609838
     46          7           0        3.474757   -0.838673   -1.476519
     47          8           0        3.671234    1.353108   -0.915529
     48          6           0        4.192202    0.265478   -1.089666
     49          1           0        7.171728   -1.251728   -0.952843
     50          6           0        6.096980   -1.195478   -1.120455
     51          6           0        6.352232    1.198276   -0.500911
     52          7           0        5.544563    0.047377   -0.914237
     53          1           0        3.893723    1.640366    4.374825
     54          1           0        2.731466    2.313330    3.448330
     55          1           0        4.292499    2.381392    2.976512
     56          1           0        0.961434   -3.477273   -0.128171
     57          1           0        2.603321   -3.486244    0.334686
     58          7           0        1.719976   -3.016227    0.332486
     59          6           0        1.561641   -1.827475    0.918124
     60          6           0        2.277454    0.086332    2.137424
     61          7           0        1.079685    0.694150    2.118787
     62          1           0       -0.814672    0.369520    1.407015
     63          6           0        0.187941   -0.051365    1.469255
     64          7           0        0.344571   -1.242245    0.882006
     65          1           0        5.412583   -0.311338    2.819336
     66          6           0        4.385290   -0.418550    2.469864
     67          7           0        3.931082   -1.446270    1.795212
     68          6           0        2.595767   -1.138914    1.577988
     69          6           0        3.602049    1.822355    3.435781
     70          7           0        3.438401    0.546531    2.712243
 ---------------------------------------------------------------------

 SCF Done:  E(RwB97XD) =  -2048.74873632     A.U. after   15 cycles

 The electronic state is 1-A.
 Alpha  occ. eigenvalues --  -19.26105 -19.22322 -19.20768 -14.52558 -14.51131
 Alpha  occ. eigenvalues --  -14.49372 -14.48710 -14.48037 -14.47052 -14.46895
 Alpha  occ. eigenvalues --  -14.45685 -14.44150 -14.42545 -14.42387 -14.42347
 Alpha  occ. eigenvalues --  -14.42147 -14.42019 -14.41452 -14.40848 -14.40594
 Alpha  occ. eigenvalues --  -10.45670 -10.41364 -10.40350 -10.38380 -10.37936
 Alpha  occ. eigenvalues --  -10.37730 -10.36739 -10.35810 -10.35715 -10.35609
 Alpha  occ. eigenvalues --  -10.34664 -10.34429 -10.34138 -10.33947 -10.33573
 Alpha  occ. eigenvalues --  -10.33269 -10.33070 -10.31496 -10.31037 -10.31000
 Alpha  occ. eigenvalues --  -10.30637 -10.29095 -10.28198  -1.19631  -1.13786
 Alpha  occ. eigenvalues --   -1.13375  -1.13340  -1.11953  -1.10624  -1.09463
 Alpha  occ. eigenvalues --   -1.08718  -1.07319  -1.05443  -1.02859  -1.02706
 Alpha  occ. eigenvalues --   -1.00825  -0.99929  -0.99516  -0.98637  -0.97481
 Alpha  occ. eigenvalues --   -0.96559  -0.94950  -0.93055  -0.91052  -0.86193
 Alpha  occ. eigenvalues --   -0.84673  -0.84488  -0.84127  -0.83939  -0.82843
 Alpha  occ. eigenvalues --   -0.82410  -0.78961  -0.75401  -0.74665  -0.73795
 Alpha  occ. eigenvalues --   -0.73521  -0.73366  -0.73130  -0.71548  -0.68741
 Alpha  occ. eigenvalues --   -0.67500  -0.66754  -0.66681  -0.65079  -0.64574
 Alpha  occ. eigenvalues --   -0.63833  -0.63171  -0.62766  -0.62531  -0.61848
 Alpha  occ. eigenvalues --   -0.60583  -0.60054  -0.59613  -0.58945  -0.58558
 Alpha  occ. eigenvalues --   -0.58425  -0.58025  -0.57001  -0.56881  -0.56517
 Alpha  occ. eigenvalues --   -0.56154  -0.55694  -0.54527  -0.54442  -0.54022
 Alpha  occ. eigenvalues --   -0.53727  -0.53543  -0.52984  -0.52745  -0.52521
 Alpha  occ. eigenvalues --   -0.52229  -0.52087  -0.51369  -0.51312  -0.50648
 Alpha  occ. eigenvalues --   -0.50271  -0.49630  -0.49514  -0.49045  -0.48833
 Alpha  occ. eigenvalues --   -0.48415  -0.48307  -0.47789  -0.47715  -0.47449
 Alpha  occ. eigenvalues --   -0.47429  -0.45519  -0.45202  -0.44056  -0.43060
 Alpha  occ. eigenvalues --   -0.41689  -0.39655  -0.39270  -0.37682  -0.37382
 Alpha  occ. eigenvalues --   -0.37274  -0.36823  -0.36035  -0.35459  -0.34512
 Alpha  occ. eigenvalues --   -0.34081  -0.34002  -0.33492  -0.33021  -0.32811
 Alpha  occ. eigenvalues --   -0.32519  -0.32336  -0.32026  -0.31947  -0.31490
 Alpha  occ. eigenvalues --   -0.30798  -0.27960  -0.26257  -0.25514
 Alpha virt. eigenvalues --    0.03030   0.05367   0.07491   0.08259   0.08715
 Alpha virt. eigenvalues --    0.09174   0.09635   0.10466   0.10791   0.12141
 Alpha virt. eigenvalues --    0.12921   0.13573   0.14475   0.14680   0.15902

 Mulliken charges:
               1
     1  N   -0.310371
     2  C    0.180592
     3  C    0.035978
     4  N   -0.254869
     5  C    0.129872
     6  H    0.027853
     7  N   -0.283948
     8  C    0.130293
     9  H    0.015320
    10  N   -0.291006
    11  C    0.230814
    12  C    0.105301
    13  N   -0.040159
    14  H    0.108731
    15  H    0.089268
    16  H    0.027463
    17  H    0.035228
    18  H    0.024610
    19  N   -0.306747
    20  C    0.251686
    21  C    0.180028
    22  N   -0.121304
    23  H    0.111920
    24  H    0.117980
    25  N   -0.306659
    26  C    0.245247
    27  N   -0.132962
    28  H    0.117427
    29  C    0.165018
    30  O   -0.324079
    31  C   -0.004090
    32  N   -0.226308
    33  C    0.126575
    34  H    0.029080
    35  H    0.032755
    36  H    0.027602
    37  H    0.022727
    38  H    0.052667
    39  H    0.063175
    40  H    0.073332
    41  H    0.028922
    42  C   -0.087554
    43  O   -0.282958
    44  C    0.167562
    45  H    0.138061
    46  N   -0.128451
    47  O   -0.350991
    48  C    0.352859
    49  H    0.046333
    50  C    0.177323
    51  C    0.039837
    52  N   -0.288647
    53  H    0.031421
    54  H    0.040129
    55  H    0.019104
    56  H    0.120284
    57  H    0.117590
    58  N   -0.031395
    59  C    0.102850
    60  C    0.241592
    61  N   -0.273781
    62  H    0.037502
    63  C    0.159294
    64  N   -0.302067
    65  H    0.026211
    66  C    0.121063
    67  N   -0.255507
    68  C    0.005769
    69  C    0.180212
    70  N   -0.308606
 Sum of Mulliken charges =  -0.00000

 Dipole moment (field-independent basis, Debye):
    X=              6.3433    Y=              6.0107    Z=              3.0840  Tot=              9.2670
 Quadrupole moment (field-independent basis, Debye-Ang):
   XX=           -140.3230   YY=           -225.6048   ZZ=           -253.2093
   XY=              9.8973   XZ=             18.0791   YZ=             -0.9041

 Normal termination of Gaussian 16 at Sat Jan 20 17:06:34 2018.
