 Gaussian 16, Revision A.03,
 Gaussian 16:  EM64L-G16RevA.03 25-Dec-2016

 ---------------------------------------
 #p wb97xd/cc-pvdz sp scf=(maxcycles=20)
 ---------------------------------------

 ------------------
 Base pair stacking
 ------------------
 Symbolic Z-matrix:
 Charge =  0 Multiplicity = 1

                         Standard orientation:
 ---------------------------------------------------------------------
 Center     Atomic      Atomic             Coordinates (Angstroms)
 Number     Number       Type             X           Y           Z
 ---------------------------------------------------------------------
      1          7           0       -6.662943   -1.253101    0.301107
      2          6           0       -7.997352   -0.707511    0.616827
      3          6           0       -4.495122   -1.621218    0.252658
      4          7           0       -5.062373   -2.526552   -0.632405
      5          6           0       -6.345701   -2.268541   -0.567795
      6          1           0       -7.113056   -2.793239   -1.137704
      7          7           0       -2.940303   -0.405594    1.544065
      8          6           0       -3.985863    0.277836    2.020830
      9          1           0       -3.743029    1.052630    2.746774
     10          7           0       -5.280282    0.148484    1.736824
     11          6           0       -5.469261   -0.829600    0.835671
     12          6           0       -3.163513   -1.383253    0.638842
     13          7           0       -2.121107   -2.066578    0.161766
     14          1           0       -2.239527   -2.798781   -0.509853
     15          1           0       -1.186751   -1.870027    0.459251
     16          1           0       -8.574721   -1.432163    0.993265
     17          1           0       -7.907364    0.027989    1.287702
     18          1           0       -8.418000   -0.347268   -0.215806
     19          7           0       -3.236325    2.336755   -1.236560
     20          6           0       -1.874764    2.295873   -1.056216
     21          6           0       -4.117803    3.450821   -0.833366
     22          7           0        1.054431    3.775151    0.081029
     23          1           0        2.028024    3.551405    0.116997
     24          1           0        0.777287    4.657542    0.462193
     25          7           0       -1.119479    3.258827   -0.484971
     26          6           0        0.159927    2.930506   -0.454096
     27          7           0        0.663213    1.749993   -0.944585
     28          1           0        1.655608    1.583400   -0.878534
     29          6           0       -0.095333    0.744918   -1.536450
     30          8           0        0.457427   -0.283100   -1.946773
     31          6           0       -1.471850    1.083244   -1.576794
     32          7           0       -2.558590    0.377047   -2.073956
     33          6           0       -3.580967    1.157575   -1.850895
     34          1           0       -4.612161    0.921021   -2.115378
     35          1           0       -4.796767    3.120631   -0.178548
     36          1           0       -3.569405    4.170131   -0.408970
     37          1           0       -4.582481    3.818451   -1.638193
     38          1           0        6.569283    1.083810    0.329316
     39          1           0        6.816462    1.573142   -1.345221
     40          1           0        5.426455    2.181415   -0.445647
     41          1           0        5.604855   -3.043930   -1.946243
     42          6           0        5.127906   -2.086383   -1.736839
     43          8           0        2.947051   -2.844993   -2.280436
     44          6           0        3.713060   -1.956658   -1.907774
     45          1           0        2.215471   -0.573882   -1.724762
     46          7           0        3.211389   -0.704310   -1.615863
     47          8           0        3.384724    1.462105   -0.957224
     48          6           0        3.918936    0.392230   -1.190999
     49          1           0        6.923350   -1.081384   -1.178131
     50          6           0        5.844935   -1.034808   -1.323706
     51          6           0        6.075019    1.331590   -0.598248
     52          7           0        5.277505    0.188118   -1.050113
     53          1           0        4.190267    1.490339    4.415076
     54          1           0        3.000814    2.186531    3.541788
     55          1           0        4.551575    2.301504    3.045800
     56          1           0        1.253319   -3.460506   -0.267772
     57          1           0        2.903471   -3.464338    0.164750
     58          7           0        2.013160   -3.009046    0.200180
     59          6           0        1.847591   -1.851318    0.843183
     60          6           0        2.556606    0.015425    2.137111
     61          7           0        1.349540    0.604040    2.168171
     62          1           0       -0.552546    0.282098    1.476063
     63          6           0        0.457372   -0.124972    1.500729
     64          7           0        0.621245   -1.284772    0.856059
     65          1           0        5.709588   -0.362654    2.743644
     66          6           0        4.677745   -0.470177    2.408000
     67          7           0        4.226828   -1.472843    1.694538
     68          6           0        2.883158   -1.177375    1.515732
     69          6           0        3.878421    1.710778    3.490861
     70          7           0        3.720872    0.467260    2.711860
 ---------------------------------------------------------------------

 SCF Done:  E(RwB97XD) =  -2048.74680881     A.U. after   15 cycles

 The electronic state is 1-A.
 Alpha  occ. eigenvalues --  -19.26095 -19.22262 -19.20778 -14.52575 -14.51328
 Alpha  occ. eigenvalues --  -14.49222 -14.48727 -14.48080 -14.47054 -14.46810
 Alpha  occ. eigenvalues --  -14.45925 -14.44344 -14.42768 -14.42605 -14.42260
 Alpha  occ. eigenvalues --  -14.42116 -14.41825 -14.41317 -14.40847 -14.40467
 Alpha  occ. eigenvalues --  -10.45682 -10.41330 -10.40326 -10.38349 -10.38180
 Alpha  occ. eigenvalues --  -10.37757 -10.36888 -10.35816 -10.35675 -10.35668
 Alpha  occ. eigenvalues --  -10.34485 -10.34399 -10.34394 -10.33764 -10.33430
 Alpha  occ. eigenvalues --  -10.33299 -10.33198 -10.31421 -10.31200 -10.31025
 Alpha  occ. eigenvalues --  -10.30655 -10.28898 -10.28167  -1.19640  -1.13978
 Alpha  occ. eigenvalues --   -1.13406  -1.13322  -1.11785  -1.10618  -1.09463
 Alpha  occ. eigenvalues --   -1.08686  -1.07576  -1.05299  -1.03109  -1.02755
 Alpha  occ. eigenvalues --   -1.00685  -0.99875  -0.99720  -0.98622  -0.97330
 Alpha  occ. eigenvalues --   -0.96558  -0.95193  -0.92923  -0.91060  -0.86383
 Alpha  occ. eigenvalues --   -0.84845  -0.84348  -0.84111  -0.83930  -0.82706
 Alpha  occ. eigenvalues --   -0.82411  -0.78974  -0.75613  -0.74659  -0.73766
 Alpha  occ. eigenvalues --   -0.73546  -0.73366  -0.73217  -0.71393  -0.68959
 Alpha  occ. eigenvalues --   -0.67471  -0.66702  -0.66607  -0.65314  -0.64590
 Alpha  occ. eigenvalues --   -0.63831  -0.63067  -0.62765  -0.62695  -0.61818
 Alpha  occ. eigenvalues --   -0.60470  -0.60208  -0.59610  -0.59142  -0.58512
 Alpha  occ. eigenvalues --   -0.58453  -0.58232  -0.56918  -0.56794  -0.56482
 Alpha  occ. eigenvalues --   -0.56144  -0.55589  -0.54563  -0.54535  -0.54196
 Alpha  occ. eigenvalues --   -0.53723  -0.53530  -0.52978  -0.52729  -0.52585
 Alpha  occ. eigenvalues --   -0.52309  -0.52090  -0.51548  -0.51194  -0.50530
 Alpha  occ. eigenvalues --   -0.50265  -0.49652  -0.49410  -0.49223  -0.48958
 Alpha  occ. eigenvalues --   -0.48503  -0.48367  -0.47808  -0.47638  -0.47432
 Alpha  occ. eigenvalues --   -0.47291  -0.45404  -0.45346  -0.44033  -0.43142
 Alpha  occ. eigenvalues --   -0.41537  -0.39644  -0.39454  -0.37523  -0.37357
 Alpha  occ. eigenvalues --   -0.37268  -0.36926  -0.36247  -0.35623  -0.34353
 Alpha  occ. eigenvalues --   -0.33905  -0.33846  -0.33533  -0.33322  -0.32796
 Alpha  occ. eigenvalues --   -0.32783  -0.32294  -0.32045  -0.31926  -0.31335
 Alpha  occ. eigenvalues --   -0.30680  -0.28071  -0.26157  -0.25432
 Alpha virt. eigenvalues --    0.02932   0.05239   0.07660   0.08199   0.08665
 Alpha virt. eigenvalues --    0.09041   0.09663   0.10619   0.10756   0.12029
 Alpha virt. eigenvalues --    0.13088   0.13699   0.14522   0.14697   0.15635

 Mulliken charges:
               1
     1  N   -0.310547
     2  C    0.180451
     3  C    0.043890
     4  N   -0.253475
     5  C    0.128638
     6  H    0.027122
     7  N   -0.286044
     8  C    0.131769
     9  H    0.014476
    10  N   -0.291780
    11  C    0.229547
    12  C    0.105017
    13  N   -0.041915
    14  H    0.109879
    15  H    0.090310
    16  H    0.027330
    17  H    0.034588
    18  H    0.023746
    19  N   -0.307539
    20  C    0.256806
    21  C    0.180014
    22  N   -0.120103
    23  H    0.112795
    24  H    0.117830
    25  N   -0.308340
    26  C    0.244691
    27  N   -0.138989
    28  H    0.117162
    29  C    0.171495
    30  O   -0.324470
    31  C   -0.005578
    32  N   -0.226354
    33  C    0.128051
    34  H    0.026637
    35  H    0.031881
    36  H    0.027891
    37  H    0.022471
    38  H    0.050777
    39  H    0.063078
    40  H    0.073709
    41  H    0.027718
    42  C   -0.089795
    43  O   -0.282636
    44  C    0.157409
    45  H    0.137709
    46  N   -0.124894
    47  O   -0.348395
    48  C    0.350097
    49  H    0.045983
    50  C    0.183617
    51  C    0.040810
    52  N   -0.284801
    53  H    0.031905
    54  H    0.040407
    55  H    0.019808
    56  H    0.123537
    57  H    0.116565
    58  N   -0.028893
    59  C    0.097831
    60  C    0.243712
    61  N   -0.276534
    62  H    0.034279
    63  C    0.163454
    64  N   -0.302832
    65  H    0.028685
    66  C    0.120032
    67  N   -0.252609
    68  C   -0.001064
    69  C    0.180753
    70  N   -0.308777
 Sum of Mulliken charges =  -0.00000

 Dipole moment (field-independent basis, Debye):
    X=              6.4019    Y=              6.0083    Z=              3.2595  Tot=              9.3653
 Quadrupole moment (field-independent basis, Debye-Ang):
   XX=           -142.1158   YY=           -225.0803   ZZ=           -254.3076
   XY=              8.5517   XZ=             15.3141   YZ=              0.1574

 Normal termination of Gaussian 16 at Sat Jan 20 16:18:59 2018.
