 Gaussian 16, Revision A.03,
 Gaussian 16:  EM64L-G16RevA.03 25-Dec-2016

 ---------------------------------------
 #p wb97xd/cc-pvdz sp scf=(maxcycles=20)
 ---------------------------------------

 ------------------
 Base pair stacking
 ------------------
 Symbolic Z-matrix:
 Charge =  0 Multiplicity = 1

                         Standard orientation:
 ---------------------------------------------------------------------
 Center     Atomic      Atomic             Coordinates (Angstroms)
 Number     Number       Type             X           Y           Z
 ---------------------------------------------------------------------
      1          7           0        4.581435   -1.198745   -1.798630
      2          6           0        5.919525   -0.602437   -1.977341
      3          6           0        2.408992   -1.477419   -1.598373
      4          7           0        2.974844   -2.738260   -1.476666
      5          6           0        4.261016   -2.519901   -1.602186
      6          1           0        5.028304   -3.293444   -1.559218
      7          7           0        0.854697    0.292957   -1.711928
      8          6           0        1.903808    1.100970   -1.896443
      9          1           0        1.662579    2.156347   -2.015851
     10          7           0        3.200081    0.802451   -1.955325
     11          6           0        3.386835   -0.518364   -1.797203
     12          6           0        1.075753   -1.030637   -1.556023
     13          7           0        0.029783   -1.838826   -1.371725
     14          1           0        0.146513   -2.825354   -1.251905
     15          1           0       -0.905636   -1.485950   -1.347154
     16          1           0        6.357847   -0.999403   -2.783863
     17          1           0        5.831304    0.385694   -2.099530
     18          1           0        6.479964   -0.788065   -1.170220
     19          7           0        5.435360    1.297382    0.865835
     20          6           0        4.066762    1.401679    0.930062
     21          6           0        6.358402    2.389609    0.497395
     22          7           0        1.175778    3.297239    0.597232
     23          1           0        0.190539    3.164395    0.701620
     24          1           0        1.484091    4.208072    0.321473
     25          7           0        3.341119    2.510541    0.669479
     26          6           0        2.045242    2.299416    0.816954
     27          7           0        1.499702    1.095245    1.190942
     28          1           0        0.497529    1.025389    1.278866
     29          6           0        2.227190   -0.058895    1.464063
     30          8           0        1.637157   -1.095070    1.794108
     31          6           0        3.620922    0.152375    1.309867
     32          7           0        4.688138   -0.718711    1.480653
     33          6           0        5.741302    0.002543    1.207072
     34          1           0        6.768715   -0.361702    1.238828
     35          1           0        6.879714    2.128168   -0.314204
     36          1           0        5.832206    3.216206    0.302136
     37          1           0        6.986732    2.566760    1.254105
     38          1           0       -4.572136    1.157053    0.912951
     39          1           0       -4.485592    1.355271    2.661632
     40          1           0       -3.202081    1.999380    1.637382
     41          1           0       -3.717896   -3.378210    2.272466
     42          6           0       -3.177215   -2.441081    2.139484
     43          8           0       -1.035916   -3.461795    2.149210
     44          6           0       -1.747972   -2.460966    2.070999
     45          1           0       -0.154896   -1.195644    1.848732
     46          7           0       -1.163471   -1.222041    1.901638
     47          8           0       -1.197973    1.034383    1.647582
     48          6           0       -1.803396   -0.012528    1.796213
     49          1           0       -4.915587   -1.207796    2.085729
     50          6           0       -3.829559   -1.276983    2.039812
     51          6           0       -3.908167    1.192174    1.763826
     52          7           0       -3.180915   -0.075600    1.871537
     53          1           0       -6.313869    3.652613   -1.793405
     54          1           0       -4.952096    3.702125   -0.896063
     55          1           0       -6.404744    3.552640   -0.167008
     56          1           0       -3.401869   -3.149304   -1.227978
     57          1           0       -5.082646   -2.867709   -1.304051
     58          7           0       -4.157384   -2.494061   -1.229930
     59          6           0       -3.941697   -1.180222   -1.137820
     60          6           0       -4.587928    1.107435   -1.034138
     61          7           0       -3.334658    1.580773   -0.935734
     62          1           0       -1.410540    0.877729   -0.871874
     63          6           0       -2.455649    0.580723   -0.947969
     64          7           0       -2.669684   -0.735812   -1.040151
     65          1           0       -7.814499    1.215541   -1.206532
     66          6           0       -6.767968    0.911986   -1.166995
     67          7           0       -6.349487   -0.328897   -1.219466
     68          6           0       -4.968990   -0.219181   -1.136191
     69          6           0       -5.865244    3.302552   -0.971099
     70          7           0       -5.755323    1.833215   -1.054625
 ---------------------------------------------------------------------

 SCF Done:  E(RwB97XD) =  -2048.73486848     A.U. after   15 cycles

 The electronic state is 1-A.
 Alpha  occ. eigenvalues --  -19.25114 -19.21321 -19.20584 -14.52989 -14.51550
 Alpha  occ. eigenvalues --  -14.49228 -14.48652 -14.48644 -14.47136 -14.46660
 Alpha  occ. eigenvalues --  -14.46623 -14.45837 -14.44804 -14.44709 -14.43002
 Alpha  occ. eigenvalues --  -14.41837 -14.41472 -14.41293 -14.41201 -14.40819
 Alpha  occ. eigenvalues --  -10.44704 -10.41084 -10.40539 -10.39423 -10.38380
 Alpha  occ. eigenvalues --  -10.38236 -10.37675 -10.37006 -10.36316 -10.35936
 Alpha  occ. eigenvalues --  -10.34522 -10.34298 -10.33969 -10.33871 -10.33510
 Alpha  occ. eigenvalues --  -10.33485 -10.33431 -10.33226 -10.31390 -10.30985
 Alpha  occ. eigenvalues --  -10.30361 -10.28703 -10.28322  -1.18740  -1.15800
 Alpha  occ. eigenvalues --   -1.13238  -1.12338  -1.11288  -1.10877  -1.09897
 Alpha  occ. eigenvalues --   -1.08578  -1.08419  -1.05516  -1.05403  -1.01724
 Alpha  occ. eigenvalues --   -1.01429  -1.00933  -0.99679  -0.98592  -0.97503
 Alpha  occ. eigenvalues --   -0.96945  -0.96892  -0.93209  -0.90238  -0.88226
 Alpha  occ. eigenvalues --   -0.86353  -0.84481  -0.84000  -0.82888  -0.82605
 Alpha  occ. eigenvalues --   -0.82460  -0.78127  -0.77533  -0.75422  -0.74814
 Alpha  occ. eigenvalues --   -0.73633  -0.73161  -0.72608  -0.71380  -0.70926
 Alpha  occ. eigenvalues --   -0.67454  -0.67294  -0.66585  -0.65852  -0.64744
 Alpha  occ. eigenvalues --   -0.64430  -0.63424  -0.63055  -0.62610  -0.61867
 Alpha  occ. eigenvalues --   -0.61482  -0.60971  -0.60783  -0.59948  -0.58930
 Alpha  occ. eigenvalues --   -0.58767  -0.58367  -0.57834  -0.56874  -0.56044
 Alpha  occ. eigenvalues --   -0.55771  -0.55691  -0.55585  -0.54748  -0.54177
 Alpha  occ. eigenvalues --   -0.54165  -0.54012  -0.53369  -0.53155  -0.52965
 Alpha  occ. eigenvalues --   -0.52185  -0.51872  -0.51474  -0.50719  -0.50568
 Alpha  occ. eigenvalues --   -0.50262  -0.50140  -0.49553  -0.49245  -0.49030
 Alpha  occ. eigenvalues --   -0.48642  -0.48230  -0.48082  -0.47606  -0.47154
 Alpha  occ. eigenvalues --   -0.47033  -0.45736  -0.45537  -0.45067  -0.42294
 Alpha  occ. eigenvalues --   -0.41453  -0.41141  -0.38857  -0.38219  -0.38069
 Alpha  occ. eigenvalues --   -0.37918  -0.37233  -0.36827  -0.35527  -0.35136
 Alpha  occ. eigenvalues --   -0.34719  -0.34277  -0.33744  -0.33547  -0.32994
 Alpha  occ. eigenvalues --   -0.32687  -0.32446  -0.31914  -0.30979  -0.30912
 Alpha  occ. eigenvalues --   -0.30662  -0.30618  -0.26407  -0.25364
 Alpha virt. eigenvalues --    0.02941   0.04352   0.06255   0.07276   0.08743
 Alpha virt. eigenvalues --    0.09090   0.09677   0.09992   0.10869   0.12477
 Alpha virt. eigenvalues --    0.13016   0.13785   0.14113   0.14476   0.14545

 Mulliken charges:
               1
     1  N   -0.300555
     2  C    0.185209
     3  C    0.063384
     4  N   -0.256089
     5  C    0.150037
     6  H    0.027984
     7  N   -0.284958
     8  C    0.128573
     9  H    0.005097
    10  N   -0.271441
    11  C    0.232735
    12  C    0.076085
    13  N   -0.058698
    14  H    0.113815
    15  H    0.084462
    16  H    0.025731
    17  H    0.029714
    18  H    0.013950
    19  N   -0.301727
    20  C    0.260347
    21  C    0.184949
    22  N   -0.107533
    23  H    0.121597
    24  H    0.118352
    25  N   -0.285767
    26  C    0.188662
    27  N   -0.113997
    28  H    0.119564
    29  C    0.175527
    30  O   -0.319877
    31  C   -0.012281
    32  N   -0.215321
    33  C    0.091218
    34  H    0.027999
    35  H    0.016527
    36  H    0.033625
    37  H    0.025745
    38  H    0.049170
    39  H    0.047446
    40  H    0.077599
    41  H    0.021775
    42  C   -0.102434
    43  O   -0.269202
    44  C    0.172725
    45  H    0.131328
    46  N   -0.121334
    47  O   -0.345167
    48  C    0.330308
    49  H    0.045950
    50  C    0.157612
    51  C    0.062985
    52  N   -0.275422
    53  H    0.036634
    54  H    0.041543
    55  H    0.030311
    56  H    0.122513
    57  H    0.119557
    58  N   -0.057282
    59  C    0.098293
    60  C    0.187699
    61  N   -0.256291
    62  H    0.024580
    63  C    0.171683
    64  N   -0.307870
    65  H    0.039420
    66  C    0.134149
    67  N   -0.251516
    68  C    0.032309
    69  C    0.179091
    70  N   -0.300804
 Sum of Mulliken charges =  -0.00000

 Dipole moment (field-independent basis, Debye):
    X=             -6.4379    Y=              7.4763    Z=             -2.2759  Tot=             10.1253
 Quadrupole moment (field-independent basis, Debye-Ang):
   XX=           -151.0967   YY=           -229.5405   ZZ=           -255.2635
   XY=             -0.9867   XZ=            -12.4589   YZ=             14.8436

 Normal termination of Gaussian 16 at Sat Jan 20 12:31:01 2018.
