 Gaussian 16, Revision A.03,
 Gaussian 16:  EM64L-G16RevA.03 25-Dec-2016

 ---------------------------------------
 #p wb97xd/cc-pvdz sp scf=(maxcycles=20)
 ---------------------------------------

 ------------------
 Base pair stacking
 ------------------
 Symbolic Z-matrix:
 Charge =  0 Multiplicity = 1

                         Standard orientation:
 ---------------------------------------------------------------------
 Center     Atomic      Atomic             Coordinates (Angstroms)
 Number     Number       Type             X           Y           Z
 ---------------------------------------------------------------------
      1          7           0       -6.865157   -1.028974    0.325341
      2          6           0       -8.174591   -0.349442    0.285077
      3          6           0       -4.720528   -1.457626    0.558014
      4          7           0       -5.315302   -2.650686    0.173856
      5          6           0       -6.583554   -2.344688    0.049056
      6          1           0       -7.364666   -3.046479   -0.244710
      7          7           0       -3.132713    0.163019    1.202454
      8          6           0       -4.150125    1.028964    1.253507
      9          1           0       -3.882517    2.044277    1.542937
     10          7           0       -5.442399    0.829932    1.001879
     11          6           0       -5.663247   -0.449020    0.655571
     12          6           0       -3.387608   -1.116194    0.850721
     13          7           0       -2.373316   -1.982074    0.799200
     14          1           0       -2.515714   -2.938967    0.543676
     15          1           0       -1.437052   -1.703959    1.014127
     16          1           0       -8.800238   -0.790021    0.928999
     17          1           0       -8.060384    0.611065    0.537048
     18          1           0       -8.554177   -0.407211   -0.638269
     19          7           0       -3.040369    1.828620   -1.518528
     20          6           0       -1.687282    1.829823   -1.279356
     21          6           0       -3.959401    2.947739   -1.229329
     22          7           0        1.161648    3.446213   -0.124945
     23          1           0        2.136878    3.246777   -0.033332
     24          1           0        0.851632    4.345999    0.183241
     25          7           0       -0.975707    2.845405   -0.744269
     26          6           0        0.307203    2.548026   -0.637888
     27          7           0        0.853482    1.348441   -1.025296
     28          1           0        1.845120    1.208472   -0.906824
     29          6           0        0.140344    0.289391   -1.578189
     30          8           0        0.729693   -0.751592   -1.894041
     31          6           0       -1.239355    0.593990   -1.698741
     32          7           0       -2.290089   -0.167749   -2.191283
     33          6           0       -3.335779    0.603452   -2.064739
     34          1           0       -4.349969    0.327069   -2.355099
     35          1           0       -4.659468    2.647641   -0.582291
     36          1           0       -3.443536    3.705864   -0.832590
     37          1           0       -4.395976    3.250030   -2.075992
     38          1           0        6.710971    0.899195    0.535573
     39          1           0        7.020516    1.279849   -1.156737
     40          1           0        5.581810    1.916768   -0.359360
     41          1           0        5.923968   -3.392662   -1.491028
     42          6           0        5.420318   -2.433858   -1.367489
     43          8           0        3.279677   -3.274985   -1.948228
     44          6           0        4.011911   -2.346980   -1.605561
     45          1           0        2.481789   -0.988156   -1.579800
     46          7           0        3.474417   -1.089103   -1.420941
     47          8           0        3.578011    1.120048   -0.905079
     48          6           0        4.142058    0.048820   -1.042858
     49          1           0        7.170644   -1.354396   -0.804523
     50          6           0        6.098784   -1.341377   -0.997651
     51          6           0        6.252402    1.072999   -0.426480
     52          7           0        5.496955   -0.115524   -0.832007
     53          1           0        4.019764    2.916951    3.187450
     54          1           0        2.892387    3.165170    2.034414
     55          1           0        4.458775    2.975414    1.616694
     56          1           0        0.928157   -3.539698    1.233172
     57          1           0        2.564516   -3.401681    1.695095
     58          7           0        1.700194   -2.950129    1.470906
     59          6           0        1.583385   -1.620759    1.488465
     60          6           0        2.362964    0.607025    1.790116
     61          7           0        1.189977    1.185955    1.484579
     62          1           0       -0.709567    0.648095    0.934106
     63          6           0        0.275337    0.262823    1.194461
     64          7           0        0.390372   -1.069092    1.176301
     65          1           0        5.474416    0.440423    2.652254
     66          6           0        4.446691    0.226543    2.357344
     67          7           0        3.958452   -0.976075    2.175690
     68          6           0        2.637983   -0.749166    1.815701
     69          6           0        3.743263    2.688776    2.253927
     70          7           0        3.536103    1.231939    2.141131
 ---------------------------------------------------------------------

 SCF Done:  E(RwB97XD) =  -2048.72819986     A.U. after   15 cycles

 The electronic state is 1-A.
 Alpha  occ. eigenvalues --  -19.26056 -19.21926 -19.20503 -14.52529 -14.51519
 Alpha  occ. eigenvalues --  -14.49793 -14.48331 -14.47879 -14.46877 -14.46394
 Alpha  occ. eigenvalues --  -14.46237 -14.44531 -14.43190 -14.43051 -14.42614
 Alpha  occ. eigenvalues --  -14.42421 -14.42130 -14.41959 -14.41110 -14.40608
 Alpha  occ. eigenvalues --  -10.45606 -10.40859 -10.40039 -10.38743 -10.38037
 Alpha  occ. eigenvalues --  -10.37681 -10.37172 -10.36411 -10.36116 -10.35896
 Alpha  occ. eigenvalues --  -10.35058 -10.34780 -10.34463 -10.34158 -10.34116
 Alpha  occ. eigenvalues --  -10.33822 -10.33029 -10.31827 -10.31486 -10.30987
 Alpha  occ. eigenvalues --  -10.29889 -10.29591 -10.27940  -1.19621  -1.14268
 Alpha  occ. eigenvalues --   -1.13115  -1.12971  -1.12393  -1.10336  -1.09411
 Alpha  occ. eigenvalues --   -1.08442  -1.08043  -1.06023  -1.03664  -1.02521
 Alpha  occ. eigenvalues --   -1.01464  -1.00118  -0.99490  -0.98379  -0.97937
 Alpha  occ. eigenvalues --   -0.96258  -0.95681  -0.93666  -0.91028  -0.86827
 Alpha  occ. eigenvalues --   -0.85353  -0.84972  -0.84033  -0.83780  -0.83278
 Alpha  occ. eigenvalues --   -0.81963  -0.78881  -0.76108  -0.74472  -0.73883
 Alpha  occ. eigenvalues --   -0.73828  -0.73465  -0.73359  -0.72136  -0.69524
 Alpha  occ. eigenvalues --   -0.67299  -0.67201  -0.66572  -0.65866  -0.64453
 Alpha  occ. eigenvalues --   -0.63777  -0.63535  -0.63319  -0.62634  -0.61503
 Alpha  occ. eigenvalues --   -0.61138  -0.60620  -0.59728  -0.59524  -0.58883
 Alpha  occ. eigenvalues --   -0.58626  -0.58129  -0.57556  -0.57381  -0.56675
 Alpha  occ. eigenvalues --   -0.56176  -0.55972  -0.55059  -0.54693  -0.54379
 Alpha  occ. eigenvalues --   -0.53957  -0.53399  -0.53004  -0.52803  -0.52620
 Alpha  occ. eigenvalues --   -0.52536  -0.52245  -0.51830  -0.51610  -0.51068
 Alpha  occ. eigenvalues --   -0.50007  -0.49908  -0.49448  -0.49025  -0.48565
 Alpha  occ. eigenvalues --   -0.48547  -0.48102  -0.48060  -0.47726  -0.47582
 Alpha  occ. eigenvalues --   -0.47270  -0.45769  -0.45529  -0.44024  -0.43183
 Alpha  occ. eigenvalues --   -0.42122  -0.40094  -0.39600  -0.38288  -0.37292
 Alpha  occ. eigenvalues --   -0.37141  -0.37018  -0.36209  -0.35477  -0.34586
 Alpha  occ. eigenvalues --   -0.34501  -0.34333  -0.33366  -0.33127  -0.32861
 Alpha  occ. eigenvalues --   -0.32541  -0.32301  -0.31897  -0.31736  -0.31596
 Alpha  occ. eigenvalues --   -0.31361  -0.28276  -0.26813  -0.25253
 Alpha virt. eigenvalues --    0.03201   0.04719   0.06913   0.08103   0.08641
 Alpha virt. eigenvalues --    0.09114   0.09736   0.09883   0.11034   0.11734
 Alpha virt. eigenvalues --    0.13012   0.13162   0.14416   0.14702   0.14792

 Mulliken charges:
               1
     1  N   -0.311855
     2  C    0.180197
     3  C    0.049077
     4  N   -0.256542
     5  C    0.132948
     6  H    0.029741
     7  N   -0.270107
     8  C    0.126165
     9  H    0.021376
    10  N   -0.291355
    11  C    0.230451
    12  C    0.100930
    13  N   -0.045655
    14  H    0.108060
    15  H    0.088100
    16  H    0.028317
    17  H    0.034559
    18  H    0.026794
    19  N   -0.292882
    20  C    0.239454
    21  C    0.175805
    22  N   -0.085630
    23  H    0.104927
    24  H    0.113270
    25  N   -0.289917
    26  C    0.207447
    27  N   -0.114768
    28  H    0.119921
    29  C    0.132638
    30  O   -0.321345
    31  C    0.016396
    32  N   -0.222372
    33  C    0.115446
    34  H    0.025804
    35  H    0.021919
    36  H    0.025236
    37  H    0.019912
    38  H    0.049019
    39  H    0.066184
    40  H    0.075156
    41  H    0.030802
    42  C   -0.105098
    43  O   -0.268123
    44  C    0.180388
    45  H    0.135394
    46  N   -0.131411
    47  O   -0.347533
    48  C    0.349448
    49  H    0.046227
    50  C    0.177092
    51  C    0.032993
    52  N   -0.285649
    53  H    0.034427
    54  H    0.026097
    55  H    0.017000
    56  H    0.120073
    57  H    0.119592
    58  N   -0.063542
    59  C    0.126060
    60  C    0.229211
    61  N   -0.279070
    62  H    0.048430
    63  C    0.166401
    64  N   -0.302595
    65  H    0.029340
    66  C    0.111090
    67  N   -0.250688
    68  C    0.007683
    69  C    0.178536
    70  N   -0.295397
 Sum of Mulliken charges =  -0.00000

 Dipole moment (field-independent basis, Debye):
    X=              5.5475    Y=              5.8367    Z=              3.9719  Tot=              8.9787
 Quadrupole moment (field-independent basis, Debye-Ang):
   XX=           -140.2570   YY=           -227.8109   ZZ=           -257.1373
   XY=             14.9900   XZ=             14.6530   YZ=             -8.5000

 Normal termination of Gaussian 16 at Sat Jan 20 12:18:52 2018.
