 Gaussian 16, Revision A.03,
 Gaussian 16:  EM64L-G16RevA.03 25-Dec-2016

 ---------------------------------------
 #p wb97xd/cc-pvdz sp scf=(maxcycles=20)
 ---------------------------------------

 ------------------
 Base pair stacking
 ------------------
 Symbolic Z-matrix:
 Charge =  0 Multiplicity = 1

                         Standard orientation:
 ---------------------------------------------------------------------
 Center     Atomic      Atomic             Coordinates (Angstroms)
 Number     Number       Type             X           Y           Z
 ---------------------------------------------------------------------
      1          7           0       -7.188220   -1.029545    0.038093
      2          6           0       -8.519703   -0.459618    0.321518
      3          6           0       -5.028372   -1.444541    0.050169
      4          7           0       -5.587297   -2.323384   -0.866330
      5          6           0       -6.866161   -2.038191   -0.836924
      6          1           0       -7.626617   -2.536995   -1.438460
      7          7           0       -3.488473   -0.283553    1.408010
      8          6           0       -4.533335    0.415304    1.863467
      9          1           0       -4.296470    1.173264    2.608889
     10          7           0       -5.820819    0.318915    1.537887
     11          6           0       -6.002824   -0.640743    0.615726
     12          6           0       -3.704549   -1.241967    0.480749
     13          7           0       -2.662821   -1.940653    0.024887
     14          1           0       -2.776131   -2.659607   -0.661754
     15          1           0       -1.734115   -1.769342    0.353993
     16          1           0       -9.123934   -1.177099    0.668382
     17          1           0       -8.434715    0.263270    1.006602
     18          1           0       -8.906491   -0.077376   -0.517698
     19          7           0       -2.613448    2.402212   -1.364803
     20          6           0       -1.259380    2.324410   -1.144560
     21          6           0       -3.461806    3.572302   -1.061714
     22          7           0        1.694407    3.770575   -0.028525
     23          1           0        2.657589    3.514679    0.049254
     24          1           0        1.441504    4.686302    0.284830
     25          7           0       -0.482641    3.295998   -0.618492
     26          6           0        0.782187    2.924428   -0.530338
     27          7           0        1.252419    1.695837   -0.926490
     28          1           0        2.235793    1.498303   -0.822020
     29          6           0        0.471335    0.680966   -1.470379
     30          8           0        0.994776   -0.391923   -1.795430
     31          6           0       -0.889877    1.065392   -1.571333
     32          7           0       -1.989829    0.366830   -2.049880
     33          6           0       -2.987089    1.197234   -1.907994
     34          1           0       -4.019560    0.980737   -2.184418
     35          1           0       -4.169060    3.312224   -0.405241
     36          1           0       -2.897310    4.298485   -0.671493
     37          1           0       -3.891804    3.900923   -1.901902
     38          1           0        7.095039    0.904417    0.551944
     39          1           0        7.402626    1.269445   -1.144166
     40          1           0        6.014573    1.987427   -0.326147
     41          1           0        6.031939   -3.330902   -1.467576
     42          6           0        5.586613   -2.344694   -1.336089
     43          8           0        3.392855   -3.059050   -1.887672
     44          6           0        4.182460   -2.175746   -1.554372
     45          1           0        2.734367   -0.730396   -1.505928
     46          7           0        3.721564   -0.889096   -1.361053
     47          8           0        3.960481    1.309401   -0.844583
     48          6           0        4.459368    0.207464   -0.991254
     49          1           0        7.404347   -1.369688   -0.796615
     50          6           0        6.332468   -1.294109   -0.974732
     51          6           0        6.634007    1.106264   -0.403453
     52          7           0        5.805231   -0.035667   -0.799510
     53          1           0        3.588916    1.410260    4.526318
     54          1           0        2.442374    2.145888    3.628327
     55          1           0        4.009876    2.234308    3.182007
     56          1           0        0.692466   -3.401793   -0.323449
     57          1           0        2.327966   -3.448665    0.159309
     58          7           0        1.446989   -2.974467    0.174784
     59          6           0        1.286569   -1.823440    0.830964
     60          6           0        1.995217    0.007038    2.175919
     61          7           0        0.800729    0.621558    2.179447
     62          1           0       -1.085500    0.352331    1.424288
     63          6           0       -0.085823   -0.077234    1.473334
     64          7           0        0.072908   -1.230270    0.815385
     65          1           0        5.119020   -0.449739    2.872606
     66          6           0        4.095979   -0.529310    2.503810
     67          7           0        3.645888   -1.510659    1.760804
     68          6           0        2.315076   -1.182931    1.545701
     69          6           0        3.310682    1.651755    3.596659
     70          7           0        3.150580    0.424185    2.793265
 ---------------------------------------------------------------------

 SCF Done:  E(RwB97XD) =  -2048.74886088     A.U. after   15 cycles

 The electronic state is 1-A.
 Alpha  occ. eigenvalues --  -19.26148 -19.22460 -19.20894 -14.52641 -14.50821
 Alpha  occ. eigenvalues --  -14.49419 -14.48786 -14.48047 -14.47190 -14.47067
 Alpha  occ. eigenvalues --  -14.45105 -14.43844 -14.42334 -14.42248 -14.42207
 Alpha  occ. eigenvalues --  -14.42105 -14.41988 -14.41448 -14.40920 -14.40626
 Alpha  occ. eigenvalues --  -10.45719 -10.41489 -10.40496 -10.38513 -10.37821
 Alpha  occ. eigenvalues --  -10.37525 -10.36422 -10.35841 -10.35751 -10.35291
 Alpha  occ. eigenvalues --  -10.34738 -10.34509 -10.34007 -10.33802 -10.33595
 Alpha  occ. eigenvalues --  -10.33324 -10.32801 -10.31499 -10.31124 -10.30731
 Alpha  occ. eigenvalues --  -10.30647 -10.29172 -10.28296  -1.19678  -1.13544
 Alpha  occ. eigenvalues --   -1.13487  -1.13388  -1.12011  -1.10725  -1.09549
 Alpha  occ. eigenvalues --   -1.08861  -1.06899  -1.05481  -1.02756  -1.02418
 Alpha  occ. eigenvalues --   -1.00853  -1.00076  -0.99168  -0.98737  -0.97528
 Alpha  occ. eigenvalues --   -0.96647  -0.94547  -0.93078  -0.91131  -0.85874
 Alpha  occ. eigenvalues --   -0.84544  -0.84354  -0.84204  -0.83988  -0.82882
 Alpha  occ. eigenvalues --   -0.82503  -0.79034  -0.75043  -0.74749  -0.73911
 Alpha  occ. eigenvalues --   -0.73570  -0.73406  -0.72759  -0.71589  -0.68363
 Alpha  occ. eigenvalues --   -0.67615  -0.66787  -0.66745  -0.64738  -0.64584
 Alpha  occ. eigenvalues --   -0.63916  -0.63189  -0.62862  -0.62164  -0.61966
 Alpha  occ. eigenvalues --   -0.60593  -0.59947  -0.59687  -0.58692  -0.58592
 Alpha  occ. eigenvalues --   -0.58291  -0.57698  -0.57010  -0.56833  -0.56601
 Alpha  occ. eigenvalues --   -0.56223  -0.55688  -0.54607  -0.54346  -0.53824
 Alpha  occ. eigenvalues --   -0.53714  -0.53604  -0.53073  -0.52792  -0.52396
 Alpha  occ. eigenvalues --   -0.52153  -0.51864  -0.51363  -0.51018  -0.50663
 Alpha  occ. eigenvalues --   -0.50384  -0.49698  -0.49523  -0.49116  -0.48710
 Alpha  occ. eigenvalues --   -0.48445  -0.48176  -0.47905  -0.47722  -0.47459
 Alpha  occ. eigenvalues --   -0.47403  -0.45609  -0.44924  -0.44161  -0.42803
 Alpha  occ. eigenvalues --   -0.41730  -0.39718  -0.38942  -0.37724  -0.37480
 Alpha  occ. eigenvalues --   -0.37388  -0.36710  -0.35691  -0.35258  -0.34678
 Alpha  occ. eigenvalues --   -0.34167  -0.34038  -0.33578  -0.33027  -0.32668
 Alpha  occ. eigenvalues --   -0.32482  -0.32235  -0.32062  -0.31936  -0.31547
 Alpha  occ. eigenvalues --   -0.30797  -0.27687  -0.26207  -0.25651
 Alpha virt. eigenvalues --    0.02971   0.05773   0.07411   0.08166   0.08887
 Alpha virt. eigenvalues --    0.09282   0.09598   0.10429   0.10993   0.12515
 Alpha virt. eigenvalues --    0.12829   0.13518   0.14416   0.14694   0.16113

 Mulliken charges:
               1
     1  N   -0.310061
     2  C    0.180747
     3  C    0.028709
     4  N   -0.255934
     5  C    0.130565
     6  H    0.028051
     7  N   -0.284832
     8  C    0.128992
     9  H    0.015779
    10  N   -0.289252
    11  C    0.233613
    12  C    0.101331
    13  N   -0.036184
    14  H    0.107693
    15  H    0.090316
    16  H    0.027420
    17  H    0.035868
    18  H    0.024929
    19  N   -0.307455
    20  C    0.249422
    21  C    0.180190
    22  N   -0.124762
    23  H    0.112276
    24  H    0.118714
    25  N   -0.307011
    26  C    0.248222
    27  N   -0.133756
    28  H    0.117853
    29  C    0.169130
    30  O   -0.325618
    31  C   -0.007701
    32  N   -0.226645
    33  C    0.129648
    34  H    0.031030
    35  H    0.033896
    36  H    0.027891
    37  H    0.023401
    38  H    0.055046
    39  H    0.062847
    40  H    0.073204
    41  H    0.030211
    42  C   -0.089062
    43  O   -0.287835
    44  C    0.180392
    45  H    0.136684
    46  N   -0.128385
    47  O   -0.353409
    48  C    0.357716
    49  H    0.047089
    50  C    0.173672
    51  C    0.040260
    52  N   -0.292879
    53  H    0.030313
    54  H    0.040725
    55  H    0.018331
    56  H    0.116301
    57  H    0.117444
    58  N   -0.027814
    59  C    0.106679
    60  C    0.243271
    61  N   -0.272384
    62  H    0.035445
    63  C    0.155221
    64  N   -0.302884
    65  H    0.023590
    66  C    0.122411
    67  N   -0.258731
    68  C    0.009036
    69  C    0.180714
    70  N   -0.309695
 Sum of Mulliken charges =  -0.00000

 Dipole moment (field-independent basis, Debye):
    X=              6.5018    Y=              6.0573    Z=              2.8121  Tot=              9.3205
 Quadrupole moment (field-independent basis, Debye-Ang):
   XX=           -138.2407   YY=           -226.4502   ZZ=           -250.9297
   XY=              9.7524   XZ=             20.8209   YZ=             -0.1574

 Normal termination of Gaussian 16 at Sat Jan 20 22:18:20 2018.
