 Gaussian 16, Revision A.03,
 Gaussian 16:  EM64L-G16RevA.03 25-Dec-2016

 ---------------------------------------
 #p wb97xd/cc-pvdz sp scf=(maxcycles=20)
 ---------------------------------------

 ------------------
 Base pair stacking
 ------------------
 Symbolic Z-matrix:
 Charge =  0 Multiplicity = 1

                         Standard orientation:
 ---------------------------------------------------------------------
 Center     Atomic      Atomic             Coordinates (Angstroms)
 Number     Number       Type             X           Y           Z
 ---------------------------------------------------------------------
      1          7           0       -6.618113   -1.124311    0.466305
      2          6           0       -7.938898   -0.467986    0.519117
      3          6           0       -4.461775   -1.533218    0.608735
      4          7           0       -5.046648   -2.696747    0.130346
      5          6           0       -6.322351   -2.403824    0.063689
      6          1           0       -7.099136   -3.089921   -0.275184
      7          7           0       -2.884712    0.050345    1.362507
      8          6           0       -3.914321    0.889236    1.516594
      9          1           0       -3.655963    1.878492    1.891915
     10          7           0       -5.209077    0.690515    1.277791
     11          6           0       -5.417856   -0.555166    0.820505
     12          6           0       -3.127665   -1.195734    0.900597
     13          7           0       -2.101190   -2.034574    0.746117
     14          1           0       -2.234484   -2.966494    0.407022
     15          1           0       -1.164467   -1.760254    0.963932
     16          1           0       -8.541240   -0.977039    1.134121
     17          1           0       -7.833917    0.467345    0.855663
     18          1           0       -8.340274   -0.447862   -0.396573
     19          7           0       -3.315387    1.891741   -1.468324
     20          6           0       -1.957149    1.896915   -1.260396
     21          6           0       -4.232048    3.004774   -1.149609
     22          7           0        0.911050    3.516767   -0.159812
     23          1           0        1.888944    3.320811   -0.092205
     24          1           0        0.604562    4.412926    0.162195
     25          7           0       -1.237562    2.911506   -0.734218
     26          6           0        0.048667    2.618805   -0.659675
     27          7           0        0.590750    1.424461   -1.068583
     28          1           0        1.585410    1.287813   -0.974049
     29          6           0       -0.130647    0.366526   -1.612851
     30          8           0        0.455505   -0.669570   -1.950017
     31          6           0       -1.513990    0.666149   -1.699267
     32          7           0       -2.572699   -0.096375   -2.173186
     33          6           0       -3.618316    0.669415   -2.016773
     34          1           0       -4.637803    0.390897   -2.285751
     35          1           0       -4.915766    2.696905   -0.488884
     36          1           0       -3.710261    3.762109   -0.759172
     37          1           0       -4.689274    3.311477   -1.983689
     38          1           0        6.484475    0.988519    0.353467
     39          1           0        6.753329    1.383040   -1.342624
     40          1           0        5.330828    2.007901   -0.507530
     41          1           0        5.668404   -3.291478   -1.686699
     42          6           0        5.163842   -2.335764   -1.544375
     43          8           0        3.013806   -3.181634   -2.081935
     44          6           0        3.749966   -2.253103   -1.749257
     45          1           0        2.215328   -0.901017   -1.678016
     46          7           0        3.211759   -0.998918   -1.542846
     47          8           0        3.318225    1.206762   -1.012911
     48          6           0        3.883302    0.138981   -1.171704
     49          1           0        6.922277   -1.253088   -1.013785
     50          6           0        5.846205   -1.243190   -1.182059
     51          6           0        6.003113    1.167514   -0.596439
     52          7           0        5.243357   -0.021161   -0.993370
     53          1           0        4.269613    2.741115    3.425934
     54          1           0        3.110156    3.073254    2.327088
     55          1           0        4.668560    2.951191    1.857454
     56          1           0        1.234612   -3.564823    0.958234
     57          1           0        2.879490   -3.439823    1.392809
     58          7           0        2.002742   -2.985498    1.231220
     59          6           0        1.865076   -1.665684    1.373706
     60          6           0        2.616002    0.538975    1.860841
     61          7           0        1.426649    1.121940    1.637162
     62          1           0       -0.477068    0.602137    1.083769
     63          6           0        0.520047    0.212703    1.284655
     64          7           0        0.655969   -1.109632    1.141381
     65          1           0        5.750135    0.351000    2.631570
     66          6           0        4.718989    0.146290    2.342159
     67          7           0        4.245780   -1.043367    2.062026
     68          6           0        2.913309   -0.808601    1.755175
     69          6           0        3.973753    2.594382    2.482041
     70          7           0        3.787291    1.150455    2.240546
 ---------------------------------------------------------------------

 SCF Done:  E(RwB97XD) =  -2048.74708635     A.U. after   15 cycles

 The electronic state is 1-A.
 Alpha  occ. eigenvalues --  -19.25945 -19.21948 -19.20535 -14.52468 -14.51722
 Alpha  occ. eigenvalues --  -14.49572 -14.48417 -14.47860 -14.47001 -14.46589
 Alpha  occ. eigenvalues --  -14.46320 -14.44698 -14.43283 -14.43138 -14.42854
 Alpha  occ. eigenvalues --  -14.42163 -14.41882 -14.41862 -14.40898 -14.40620
 Alpha  occ. eigenvalues --  -10.45538 -10.40917 -10.40060 -10.38922 -10.38049
 Alpha  occ. eigenvalues --  -10.37652 -10.37288 -10.36323 -10.36163 -10.35746
 Alpha  occ. eigenvalues --  -10.35001 -10.34811 -10.34171 -10.34109 -10.33888
 Alpha  occ. eigenvalues --  -10.33774 -10.33093 -10.31702 -10.31647 -10.30937
 Alpha  occ. eigenvalues --  -10.30039 -10.29307 -10.27895  -1.19532  -1.14409
 Alpha  occ. eigenvalues --   -1.13076  -1.12981  -1.12146  -1.10355  -1.09342
 Alpha  occ. eigenvalues --   -1.08387  -1.08226  -1.05766  -1.03797  -1.02507
 Alpha  occ. eigenvalues --   -1.01204  -1.00220  -0.99480  -0.98361  -0.97709
 Alpha  occ. eigenvalues --   -0.96253  -0.95842  -0.93419  -0.90973  -0.86916
 Alpha  occ. eigenvalues --   -0.85393  -0.84722  -0.83942  -0.83762  -0.83063
 Alpha  occ. eigenvalues --   -0.81996  -0.78834  -0.76218  -0.74386  -0.73978
 Alpha  occ. eigenvalues --   -0.73635  -0.73471  -0.73330  -0.71846  -0.69606
 Alpha  occ. eigenvalues --   -0.67161  -0.67045  -0.66529  -0.65940  -0.64415
 Alpha  occ. eigenvalues --   -0.63605  -0.63532  -0.63320  -0.62559  -0.61491
 Alpha  occ. eigenvalues --   -0.60911  -0.60681  -0.59807  -0.59471  -0.58867
 Alpha  occ. eigenvalues --   -0.58504  -0.58102  -0.57310  -0.57217  -0.56407
 Alpha  occ. eigenvalues --   -0.56037  -0.55943  -0.54823  -0.54724  -0.54337
 Alpha  occ. eigenvalues --   -0.53859  -0.53405  -0.52902  -0.52748  -0.52606
 Alpha  occ. eigenvalues --   -0.52494  -0.52369  -0.51981  -0.51451  -0.50913
 Alpha  occ. eigenvalues --   -0.49913  -0.49813  -0.49415  -0.48989  -0.48750
 Alpha  occ. eigenvalues --   -0.48584  -0.48154  -0.47918  -0.47690  -0.47486
 Alpha  occ. eigenvalues --   -0.47275  -0.45543  -0.45428  -0.44011  -0.43600
 Alpha  occ. eigenvalues --   -0.41957  -0.40094  -0.39503  -0.38007  -0.37240
 Alpha  occ. eigenvalues --   -0.37106  -0.37042  -0.36583  -0.35612  -0.34391
 Alpha  occ. eigenvalues --   -0.34256  -0.34007  -0.33678  -0.33240  -0.33137
 Alpha  occ. eigenvalues --   -0.32562  -0.32054  -0.31886  -0.31769  -0.31644
 Alpha  occ. eigenvalues --   -0.31157  -0.28759  -0.26578  -0.25163
 Alpha virt. eigenvalues --    0.03151   0.04782   0.07203   0.08013   0.08526
 Alpha virt. eigenvalues --    0.09193   0.09894   0.10111   0.10902   0.11472
 Alpha virt. eigenvalues --    0.13076   0.13418   0.14488   0.14781   0.14882

 Mulliken charges:
               1
     1  N   -0.311327
     2  C    0.179923
     3  C    0.055116
     4  N   -0.255565
     5  C    0.131598
     6  H    0.028717
     7  N   -0.276607
     8  C    0.131556
     9  H    0.017459
    10  N   -0.290973
    11  C    0.228210
    12  C    0.101999
    13  N   -0.045247
    14  H    0.108952
    15  H    0.088997
    16  H    0.028105
    17  H    0.034111
    18  H    0.025641
    19  N   -0.296258
    20  C    0.249493
    21  C    0.178711
    22  N   -0.099865
    23  H    0.110970
    24  H    0.113668
    25  N   -0.298691
    26  C    0.219647
    27  N   -0.129902
    28  H    0.120276
    29  C    0.147849
    30  O   -0.322510
    31  C    0.009166
    32  N   -0.223219
    33  C    0.119101
    34  H    0.023349
    35  H    0.022462
    36  H    0.025385
    37  H    0.020569
    38  H    0.045080
    39  H    0.064742
    40  H    0.075211
    41  H    0.029424
    42  C   -0.104919
    43  O   -0.269858
    44  C    0.174641
    45  H    0.134820
    46  N   -0.129261
    47  O   -0.344534
    48  C    0.346102
    49  H    0.045771
    50  C    0.180287
    51  C    0.036537
    52  N   -0.282157
    53  H    0.034064
    54  H    0.034645
    55  H    0.016446
    56  H    0.122231
    57  H    0.119211
    58  N   -0.057357
    59  C    0.118067
    60  C    0.236345
    61  N   -0.280410
    62  H    0.035595
    63  C    0.171936
    64  N   -0.303470
    65  H    0.034469
    66  C    0.110323
    67  N   -0.248167
    68  C    0.003285
    69  C    0.180321
    70  N   -0.300282
 Sum of Mulliken charges =  -0.00000

 Dipole moment (field-independent basis, Debye):
    X=              5.8387    Y=              5.9410    Z=              3.7620  Tot=              9.1400
 Quadrupole moment (field-independent basis, Debye-Ang):
   XX=           -142.4364   YY=           -226.4070   ZZ=           -257.4809
   XY=             13.0195   XZ=             12.4837   YZ=             -7.2887

 Normal termination of Gaussian 16 at Sun Jan 21 00:42:55 2018.
