 Gaussian 16, Revision A.03,
 Gaussian 16:  EM64L-G16RevA.03 25-Dec-2016

 ---------------------------------------
 #p wb97xd/cc-pvdz sp scf=(maxcycles=20)
 ---------------------------------------

 ------------------
 Base pair stacking
 ------------------
 Symbolic Z-matrix:
 Charge =  0 Multiplicity = 1

                         Standard orientation:
 ---------------------------------------------------------------------
 Center     Atomic      Atomic             Coordinates (Angstroms)
 Number     Number       Type             X           Y           Z
 ---------------------------------------------------------------------
      1          7           0        5.181745   -1.224470   -1.435789
      2          6           0        6.522692   -0.613135   -1.514062
      3          6           0        3.003667   -1.526585   -1.390795
      4          7           0        3.572897   -2.783199   -1.243748
      5          6           0        4.862330   -2.550898   -1.276739
      6          1           0        5.632839   -3.317389   -1.188811
      7          7           0        1.442542    0.229804   -1.593131
      8          6           0        2.493416    1.050090   -1.695039
      9          1           0        2.250006    2.104389   -1.819392
     10          7           0        3.793706    0.764890   -1.666549
     11          6           0        3.982862   -0.555799   -1.510305
     12          6           0        1.666105   -1.093318   -1.436734
     13          7           0        0.618394   -1.913733   -1.334824
     14          1           0        0.736851   -2.900416   -1.217994
     15          1           0       -0.320123   -1.570279   -1.371756
     16          1           0        7.020323   -0.996360   -2.292320
     17          1           0        6.432811    0.375455   -1.631230
     18          1           0        7.027429   -0.802730   -0.671866
     19          7           0        4.859910    1.407915    1.082887
     20          6           0        3.488973    1.495790    1.053656
     21          6           0        5.792845    2.484177    0.693008
     22          7           0        0.605011    3.317719    0.401701
     23          1           0       -0.383407    3.177891    0.453915
     24          1           0        0.920529    4.210517    0.079117
     25          7           0        2.769613    2.571445    0.666971
     26          6           0        1.469309    2.351981    0.748473
     27          7           0        0.913919    1.170236    1.175721
     28          1           0       -0.091013    1.091760    1.205839
     29          6           0        1.634809    0.050368    1.578341
     30          8           0        1.036038   -0.967737    1.946641
     31          6           0        3.033196    0.270980    1.496257
     32          7           0        4.096598   -0.568947    1.797288
     33          6           0        5.157288    0.146305    1.537396
     34          1           0        6.184424   -0.198960    1.660083
     35          1           0        6.367286    2.172027   -0.062891
     36          1           0        5.271366    3.286166    0.404674
     37          1           0        6.370051    2.725750    1.472292
     38          1           0       -5.128406    1.119148    0.515410
     39          1           0       -5.154964    1.446050    2.246612
     40          1           0       -3.816001    2.032957    1.259662
     41          1           0       -4.314119   -3.290983    2.257322
     42          6           0       -3.776040   -2.357976    2.089407
     43          8           0       -1.628990   -3.342548    2.308255
     44          6           0       -2.345195   -2.361068    2.111938
     45          1           0       -0.754717   -1.091304    1.896581
     46          7           0       -1.764279   -1.129106    1.888222
     47          8           0       -1.806469    1.101908    1.466307
     48          6           0       -2.408993    0.059576    1.653879
     49          1           0       -5.520459   -1.158521    1.836149
     50          6           0       -4.433031   -1.214351    1.863372
     51          6           0       -4.520105    1.226517    1.401133
     52          7           0       -3.787778   -0.018768    1.647521
     53          1           0       -5.737840    3.520316   -2.138023
     54          1           0       -4.442527    3.572561   -1.147299
     55          1           0       -5.940817    3.400440   -0.523143
     56          1           0       -2.800964   -3.259111   -1.445473
     57          1           0       -4.475214   -2.993003   -1.635619
     58          7           0       -3.561349   -2.611277   -1.492969
     59          6           0       -3.366441   -1.296569   -1.371586
     60          6           0       -4.042356    0.983326   -1.288126
     61          7           0       -2.804033    1.467654   -1.097250
     62          1           0       -0.881754    0.782644   -0.906926
     63          6           0       -1.915845    0.476407   -1.059067
     64          7           0       -2.109075   -0.840981   -1.180447
     65          1           0       -7.250015    1.062068   -1.684212
     66          6           0       -6.205648    0.768261   -1.575027
     67          7           0       -5.771497   -0.467795   -1.611796
     68          6           0       -4.401398   -0.345640   -1.431125
     69          6           0       -5.343963    3.165031   -1.290298
     70          7           0       -5.213049    1.697914   -1.382102
 ---------------------------------------------------------------------

 SCF Done:  E(RwB97XD) =  -2048.72626592     A.U. after   15 cycles

 The electronic state is 1-A.
 Alpha  occ. eigenvalues --  -19.25072 -19.21449 -19.20505 -14.52691 -14.51786
 Alpha  occ. eigenvalues --  -14.48871 -14.48746 -14.48425 -14.47244 -14.46619
 Alpha  occ. eigenvalues --  -14.46543 -14.45907 -14.44735 -14.44532 -14.42904
 Alpha  occ. eigenvalues --  -14.41807 -14.41408 -14.41167 -14.41031 -14.40732
 Alpha  occ. eigenvalues --  -10.44761 -10.41037 -10.40319 -10.39557 -10.38332
 Alpha  occ. eigenvalues --  -10.38111 -10.37485 -10.37154 -10.36304 -10.35884
 Alpha  occ. eigenvalues --  -10.34402 -10.34267 -10.34131 -10.33920 -10.33563
 Alpha  occ. eigenvalues --  -10.33539 -10.33285 -10.32973 -10.31511 -10.30886
 Alpha  occ. eigenvalues --  -10.30582 -10.28705 -10.28079  -1.18936  -1.15813
 Alpha  occ. eigenvalues --   -1.13106  -1.12475  -1.11458  -1.10541  -1.09684
 Alpha  occ. eigenvalues --   -1.08728  -1.08462  -1.05487  -1.05162  -1.01894
 Alpha  occ. eigenvalues --   -1.01431  -1.00898  -0.99625  -0.98438  -0.97339
 Alpha  occ. eigenvalues --   -0.97092  -0.96568  -0.93184  -0.90466  -0.88105
 Alpha  occ. eigenvalues --   -0.86367  -0.84271  -0.84063  -0.83073  -0.82712
 Alpha  occ. eigenvalues --   -0.82443  -0.78293  -0.77447  -0.75282  -0.74577
 Alpha  occ. eigenvalues --   -0.73532  -0.73232  -0.72801  -0.71399  -0.70792
 Alpha  occ. eigenvalues --   -0.67335  -0.67168  -0.66666  -0.66068  -0.64653
 Alpha  occ. eigenvalues --   -0.64260  -0.63717  -0.63117  -0.62545  -0.62020
 Alpha  occ. eigenvalues --   -0.61724  -0.60935  -0.60773  -0.59896  -0.59063
 Alpha  occ. eigenvalues --   -0.58513  -0.58301  -0.57744  -0.56953  -0.56132
 Alpha  occ. eigenvalues --   -0.55926  -0.55727  -0.55526  -0.54321  -0.54119
 Alpha  occ. eigenvalues --   -0.54016  -0.53908  -0.53348  -0.53192  -0.52892
 Alpha  occ. eigenvalues --   -0.52852  -0.52098  -0.51931  -0.50902  -0.50398
 Alpha  occ. eigenvalues --   -0.50292  -0.49974  -0.49295  -0.49165  -0.48804
 Alpha  occ. eigenvalues --   -0.48542  -0.48213  -0.48073  -0.47801  -0.47212
 Alpha  occ. eigenvalues --   -0.47039  -0.45797  -0.45063  -0.44996  -0.42558
 Alpha  occ. eigenvalues --   -0.41214  -0.41178  -0.38921  -0.38012  -0.37894
 Alpha  occ. eigenvalues --   -0.37545  -0.37125  -0.37013  -0.35955  -0.35118
 Alpha  occ. eigenvalues --   -0.34670  -0.34311  -0.33850  -0.33356  -0.32847
 Alpha  occ. eigenvalues --   -0.32482  -0.32288  -0.31788  -0.31456  -0.31064
 Alpha  occ. eigenvalues --   -0.30699  -0.29858  -0.26083  -0.25341
 Alpha virt. eigenvalues --    0.03403   0.03700   0.06856   0.07631   0.08772
 Alpha virt. eigenvalues --    0.09104   0.09742   0.10003   0.10799   0.12724
 Alpha virt. eigenvalues --    0.12897   0.13743   0.14158   0.14225   0.14451

 Mulliken charges:
               1
     1  N   -0.303184
     2  C    0.175766
     3  C    0.076195
     4  N   -0.257853
     5  C    0.141056
     6  H    0.026507
     7  N   -0.282002
     8  C    0.130348
     9  H    0.012934
    10  N   -0.276945
    11  C    0.227416
    12  C    0.073278
    13  N   -0.049669
    14  H    0.110695
    15  H    0.083213
    16  H    0.029163
    17  H    0.032521
    18  H    0.017339
    19  N   -0.286479
    20  C    0.242040
    21  C    0.189084
    22  N   -0.111368
    23  H    0.120365
    24  H    0.117168
    25  N   -0.285190
    26  C    0.204510
    27  N   -0.112817
    28  H    0.113138
    29  C    0.167381
    30  O   -0.321112
    31  C   -0.003226
    32  N   -0.214318
    33  C    0.099543
    34  H    0.020099
    35  H    0.011607
    36  H    0.031693
    37  H    0.022752
    38  H    0.053820
    39  H    0.049754
    40  H    0.075213
    41  H    0.025049
    42  C   -0.100091
    43  O   -0.268121
    44  C    0.170935
    45  H    0.129071
    46  N   -0.113721
    47  O   -0.339035
    48  C    0.328669
    49  H    0.045484
    50  C    0.162104
    51  C    0.061523
    52  N   -0.276161
    53  H    0.037881
    54  H    0.041751
    55  H    0.025663
    56  H    0.123353
    57  H    0.119101
    58  N   -0.059522
    59  C    0.097535
    60  C    0.165946
    61  N   -0.251283
    62  H    0.007982
    63  C    0.177348
    64  N   -0.301574
    65  H    0.035219
    66  C    0.114789
    67  N   -0.246855
    68  C    0.050438
    69  C    0.180081
    70  N   -0.293993
 Sum of Mulliken charges =  -0.00000

 Dipole moment (field-independent basis, Debye):
    X=             -6.1988    Y=              7.0613    Z=             -3.2821  Tot=              9.9528
 Quadrupole moment (field-independent basis, Debye-Ang):
   XX=           -150.3081   YY=           -228.3276   ZZ=           -258.3926
   XY=             -5.1844   XZ=             -5.9094   YZ=             14.0364

 Normal termination of Gaussian 16 at Sat Jan 20 15:19:23 2018.
