 Gaussian 16, Revision A.03,
 Gaussian 16:  EM64L-G16RevA.03 25-Dec-2016

 ---------------------------------------
 #p wb97xd/cc-pvdz sp scf=(maxcycles=20)
 ---------------------------------------

 ------------------
 Base pair stacking
 ------------------
 Symbolic Z-matrix:
 Charge =  0 Multiplicity = 1

                         Standard orientation:
 ---------------------------------------------------------------------
 Center     Atomic      Atomic             Coordinates (Angstroms)
 Number     Number       Type             X           Y           Z
 ---------------------------------------------------------------------
      1          7           0        4.593561   -1.112570   -1.777617
      2          6           0        5.934548   -0.506161   -1.887360
      3          6           0        2.418263   -1.402540   -1.631677
      4          7           0        2.981275   -2.670277   -1.607369
      5          6           0        4.269283   -2.444840   -1.696269
      6          1           0        5.035229   -3.220826   -1.707060
      7          7           0        0.867231    0.374282   -1.619314
      8          6           0        1.919527    1.192722   -1.721261
      9          1           0        1.680903    2.254857   -1.755833
     10          7           0        3.216255    0.897516   -1.786630
     11          6           0        3.399630   -0.432246   -1.736329
     12          6           0        1.084941   -0.958147   -1.570975
     13          7           0        0.035793   -1.776743   -1.469210
     14          1           0        0.149980   -2.770054   -1.430243
     15          1           0       -0.899582   -1.425243   -1.428471
     16          1           0        6.383877   -0.835565   -2.717889
     17          1           0        5.848892    0.488886   -1.928138
     18          1           0        6.483381   -0.759407   -1.090704
     19          7           0        5.427011    1.252699    0.872398
     20          6           0        4.057590    1.351630    0.926881
     21          6           0        6.348253    2.348011    0.508677
     22          7           0        1.161494    3.235114    0.570766
     23          1           0        0.176080    3.098505    0.668465
     24          1           0        1.468107    4.146733    0.295696
     25          7           0        3.329381    2.457171    0.659433
     26          6           0        2.033362    2.241110    0.798173
     27          7           0        1.490008    1.035369    1.170264
     28          1           0        0.487525    0.961649    1.251288
     29          6           0        2.220153   -0.115418    1.450332
     30          8           0        1.631946   -1.153421    1.777909
     31          6           0        3.614075    0.101156    1.305562
     32          7           0        4.683520   -0.765389    1.485213
     33          6           0        5.735699   -0.040364    1.217857
     34          1           0        6.764308   -0.400467    1.257386
     35          1           0        6.876273    2.087372   -0.298836
     36          1           0        5.820158    3.172190    0.308405
     37          1           0        6.970557    2.528873    1.269483
     38          1           0       -4.579930    1.072508    0.849671
     39          1           0       -4.506437    1.273835    2.598595
     40          1           0       -3.218352    1.921436    1.582327
     41          1           0       -3.717202   -3.457152    2.222437
     42          6           0       -3.179342   -2.518077    2.091737
     43          8           0       -1.034118   -3.530234    2.118093
     44          6           0       -1.749576   -2.532375    2.033294
     45          1           0       -0.160037   -1.261066    1.820146
     46          7           0       -1.168843   -1.291401    1.866035
     47          8           0       -1.210535    0.964466    1.608105
     48          6           0       -1.812827   -0.084612    1.754181
     49          1           0       -4.922184   -1.291836    2.023812
     50          6           0       -3.835597   -1.356753    1.985624
     51          6           0       -3.922091    1.111623    1.705117
     52          7           0       -3.190575   -0.153059    1.819953
     53          1           0       -6.296624    3.743534   -1.521377
     54          1           0       -4.947610    3.715495   -0.604058
     55          1           0       -6.410540    3.508818    0.089636
     56          1           0       -3.398653   -3.087703   -1.483039
     57          1           0       -5.077954   -2.797372   -1.558939
     58          7           0       -4.153504   -2.433054   -1.441052
     59          6           0       -3.938039   -1.131868   -1.236958
     60          6           0       -4.583724    1.140537   -0.952379
     61          7           0       -3.331572    1.601534   -0.797406
     62          1           0       -1.409137    0.891722   -0.765323
     63          6           0       -2.453321    0.604195   -0.880479
     64          7           0       -2.667147   -0.699680   -1.084855
     65          1           0       -7.807450    1.269132   -1.160349
     66          6           0       -6.761835    0.961228   -1.131546
     67          7           0       -6.343711   -0.271840   -1.281202
     68          6           0       -4.964433   -0.172221   -1.169764
     69          6           0       -5.859947    3.325383   -0.724842
     70          7           0       -5.750103    1.867874   -0.928769
 ---------------------------------------------------------------------

 SCF Done:  E(RwB97XD) =  -2048.71314955     A.U. after   15 cycles

 The electronic state is 1-A.
 Alpha  occ. eigenvalues --  -19.25048 -19.21242 -19.20581 -14.53070 -14.51473
 Alpha  occ. eigenvalues --  -14.49237 -14.48738 -14.48715 -14.47106 -14.46591
 Alpha  occ. eigenvalues --  -14.46581 -14.45920 -14.44801 -14.44633 -14.43078
 Alpha  occ. eigenvalues --  -14.41731 -14.41485 -14.41285 -14.41262 -14.40815
 Alpha  occ. eigenvalues --  -10.44651 -10.40990 -10.40621 -10.39352 -10.38447
 Alpha  occ. eigenvalues --  -10.38222 -10.37735 -10.36946 -10.36292 -10.35980
 Alpha  occ. eigenvalues --  -10.34481 -10.34390 -10.34035 -10.33889 -10.33550
 Alpha  occ. eigenvalues --  -10.33378 -10.33275 -10.33000 -10.31429 -10.31033
 Alpha  occ. eigenvalues --  -10.30306 -10.28733 -10.28313  -1.18733  -1.15939
 Alpha  occ. eigenvalues --   -1.13258  -1.12272  -1.11348  -1.10887  -1.09974
 Alpha  occ. eigenvalues --   -1.08584  -1.08372  -1.05578  -1.05522  -1.01671
 Alpha  occ. eigenvalues --   -1.01520  -1.01018  -0.99668  -0.98581  -0.97614
 Alpha  occ. eigenvalues --   -0.97020  -0.96898  -0.93265  -0.90163  -0.88355
 Alpha  occ. eigenvalues --   -0.86442  -0.84556  -0.84024  -0.82897  -0.82550
 Alpha  occ. eigenvalues --   -0.82509  -0.78073  -0.77617  -0.75543  -0.74818
 Alpha  occ. eigenvalues --   -0.73672  -0.73203  -0.72560  -0.71466  -0.71034
 Alpha  occ. eigenvalues --   -0.67465  -0.67386  -0.66658  -0.65830  -0.64855
 Alpha  occ. eigenvalues --   -0.64432  -0.63499  -0.63137  -0.62605  -0.61897
 Alpha  occ. eigenvalues --   -0.61701  -0.61071  -0.60885  -0.60056  -0.58938
 Alpha  occ. eigenvalues --   -0.58740  -0.58382  -0.58067  -0.56981  -0.56165
 Alpha  occ. eigenvalues --   -0.55841  -0.55685  -0.55577  -0.54892  -0.54474
 Alpha  occ. eigenvalues --   -0.54222  -0.54035  -0.53444  -0.53118  -0.52914
 Alpha  occ. eigenvalues --   -0.52011  -0.51903  -0.51408  -0.50858  -0.50621
 Alpha  occ. eigenvalues --   -0.50259  -0.49990  -0.49563  -0.49297  -0.49036
 Alpha  occ. eigenvalues --   -0.48571  -0.48362  -0.48026  -0.47468  -0.47204
 Alpha  occ. eigenvalues --   -0.46987  -0.45601  -0.45386  -0.45045  -0.42080
 Alpha  occ. eigenvalues --   -0.41408  -0.41158  -0.38826  -0.38299  -0.38200
 Alpha  occ. eigenvalues --   -0.38077  -0.37200  -0.36580  -0.35428  -0.35165
 Alpha  occ. eigenvalues --   -0.34715  -0.34401  -0.33812  -0.33508  -0.32984
 Alpha  occ. eigenvalues --   -0.32675  -0.32389  -0.31903  -0.30939  -0.30884
 Alpha  occ. eigenvalues --   -0.30645  -0.30457  -0.26504  -0.25273
 Alpha virt. eigenvalues --    0.02960   0.04350   0.06142   0.06951   0.08704
 Alpha virt. eigenvalues --    0.09084   0.09589   0.09874   0.11070   0.12543
 Alpha virt. eigenvalues --    0.13001   0.13698   0.14170   0.14430   0.14666

 Mulliken charges:
               1
     1  N   -0.300941
     2  C    0.188622
     3  C    0.065626
     4  N   -0.257184
     5  C    0.148919
     6  H    0.028044
     7  N   -0.282075
     8  C    0.134704
     9  H    0.002637
    10  N   -0.268318
    11  C    0.230725
    12  C    0.073868
    13  N   -0.058987
    14  H    0.112536
    15  H    0.083616
    16  H    0.025522
    17  H    0.027200
    18  H    0.014314
    19  N   -0.298438
    20  C    0.255772
    21  C    0.185352
    22  N   -0.097220
    23  H    0.122373
    24  H    0.118724
    25  N   -0.270013
    26  C    0.150935
    27  N   -0.101508
    28  H    0.119660
    29  C    0.169421
    30  O   -0.319602
    31  C   -0.006473
    32  N   -0.213006
    33  C    0.085505
    34  H    0.028543
    35  H    0.014345
    36  H    0.033960
    37  H    0.026003
    38  H    0.044120
    39  H    0.041993
    40  H    0.079079
    41  H    0.022831
    42  C   -0.102603
    43  O   -0.268510
    44  C    0.173972
    45  H    0.131375
    46  N   -0.121165
    47  O   -0.344010
    48  C    0.326561
    49  H    0.045944
    50  C    0.158042
    51  C    0.071543
    52  N   -0.276283
    53  H    0.037181
    54  H    0.041675
    55  H    0.030908
    56  H    0.122012
    57  H    0.120335
    58  N   -0.058721
    59  C    0.101335
    60  C    0.194739
    61  N   -0.262081
    62  H    0.023554
    63  C    0.171770
    64  N   -0.307182
    65  H    0.039540
    66  C    0.133086
    67  N   -0.249822
    68  C    0.029125
    69  C    0.178906
    70  N   -0.302405
 Sum of Mulliken charges =  -0.00000

 Dipole moment (field-independent basis, Debye):
    X=             -6.4150    Y=              7.5008    Z=             -2.4659  Tot=             10.1733
 Quadrupole moment (field-independent basis, Debye-Ang):
   XX=           -151.0620   YY=           -230.8793   ZZ=           -255.2353
   XY=             -0.3180   XZ=            -12.4296   YZ=             16.1561

 Normal termination of Gaussian 16 at Sat Jan 20 16:55:10 2018.
