 Gaussian 16, Revision A.03,
 Gaussian 16:  EM64L-G16RevA.03 25-Dec-2016

 ---------------------------------------
 #p wb97xd/cc-pvdz sp scf=(maxcycles=20)
 ---------------------------------------

 ------------------
 Base pair stacking
 ------------------
 Symbolic Z-matrix:
 Charge =  0 Multiplicity = 1

                         Standard orientation:
 ---------------------------------------------------------------------
 Center     Atomic      Atomic             Coordinates (Angstroms)
 Number     Number       Type             X           Y           Z
 ---------------------------------------------------------------------
      1          7           0        4.287338   -1.114122   -1.937497
      2          6           0        5.622122   -0.513570   -2.126341
      3          6           0        2.119866   -1.396681   -1.693459
      4          7           0        2.685135   -2.662354   -1.636044
      5          6           0        3.968327   -2.441460   -1.785367
      6          1           0        4.734319   -3.217444   -1.792443
      7          7           0        0.568087    0.379527   -1.697583
      8          6           0        1.614441    1.192370   -1.876535
      9          1           0        1.373178    2.252063   -1.947999
     10          7           0        2.907979    0.894132   -1.979973
     11          6           0        3.095029   -0.432227   -1.878947
     12          6           0        0.789357   -0.949585   -1.599749
     13          7           0       -0.253850   -1.762603   -1.421099
     14          1           0       -0.136854   -2.753300   -1.343339
     15          1           0       -1.187379   -1.409324   -1.358925
     16          1           0        6.038856   -0.879079   -2.958759
     17          1           0        5.533566    0.478787   -2.207108
     18          1           0        6.202236   -0.731976   -1.341636
     19          7           0        5.709398    1.231453    0.755380
     20          6           0        4.343149    1.335531    0.858316
     21          6           0        6.625843    2.335782    0.407130
     22          7           0        1.449926    3.247856    0.673964
     23          1           0        0.467266    3.112724    0.797934
     24          1           0        1.753692    4.168344    0.426692
     25          7           0        3.614214    2.455102    0.660204
     26          6           0        2.321903    2.240593    0.831998
     27          7           0        1.782646    1.023520    1.171809
     28          1           0        0.782822    0.952001    1.282254
     29          6           0        2.513618   -0.141794    1.380599
     30          8           0        1.929245   -1.189179    1.684279
     31          6           0        3.903584    0.072957    1.199628
     32          7           0        4.972363   -0.806082    1.308771
     33          6           0        6.020268   -0.076409    1.037329
     34          1           0        7.047160   -0.443436    1.028631
     35          1           0        7.125787    2.105746   -0.427106
     36          1           0        6.097175    3.170372    0.258067
     37          1           0        7.273568    2.481743    1.154096
     38          1           0       -4.294080    1.106952    1.050326
     39          1           0       -4.162891    1.235661    2.802711
     40          1           0       -2.903855    1.917548    1.772546
     41          1           0       -3.418307   -3.480046    2.207500
     42          6           0       -2.878577   -2.539332    2.098001
     43          8           0       -0.740540   -3.563406    2.013163
     44          6           0       -1.451572   -2.559012    1.992615
     45          1           0        0.138863   -1.288692    1.780251
     46          7           0       -0.868125   -1.315389    1.857596
     47          8           0       -0.902796    0.949383    1.693853
     48          6           0       -1.507169   -0.101529    1.816285
     49          1           0       -4.614345   -1.301836    2.137050
     50          6           0       -3.530010   -1.371065    2.060959
     51          6           0       -3.608757    1.107208    1.884837
     52          7           0       -2.882523   -0.165103    1.923916
     53          1           0       -6.590960    3.752373   -1.464674
     54          1           0       -5.206845    3.763940   -0.600858
     55          1           0       -6.641041    3.588279    0.158283
     56          1           0       -3.684374   -3.071704   -1.242393
     57          1           0       -5.365765   -2.784361   -1.264684
     58          7           0       -4.437895   -2.415573   -1.199308
     59          6           0       -4.216336   -1.106784   -1.060858
     60          6           0       -4.853428    1.176106   -0.850518
     61          7           0       -3.596780    1.642984   -0.765259
     62          1           0       -1.673595    0.934577   -0.777984
     63          6           0       -2.721120    0.642658   -0.839256
     64          7           0       -2.941037   -0.668828   -0.977936
     65          1           0       -8.083017    1.296624   -0.936754
     66          6           0       -7.036658    0.989899   -0.935746
     67          7           0       -6.623049   -0.248667   -1.047800
     68          6           0       -5.240601   -0.144764   -0.995239
     69          6           0       -6.122689    3.369248   -0.668473
     70          7           0       -6.018969    1.904184   -0.812753
 ---------------------------------------------------------------------

 SCF Done:  E(RwB97XD) =  -2048.73117092     A.U. after   15 cycles

 The electronic state is 1-A.
 Alpha  occ. eigenvalues --  -19.24980 -19.21192 -19.20606 -14.53015 -14.51319
 Alpha  occ. eigenvalues --  -14.49395 -14.48806 -14.48580 -14.47011 -14.46726
 Alpha  occ. eigenvalues --  -14.46670 -14.45813 -14.45013 -14.44844 -14.43184
 Alpha  occ. eigenvalues --  -14.41905 -14.41671 -14.41357 -14.41165 -14.40950
 Alpha  occ. eigenvalues --  -10.44538 -10.41163 -10.40681 -10.39296 -10.38380
 Alpha  occ. eigenvalues --  -10.38313 -10.37703 -10.36878 -10.36373 -10.36059
 Alpha  occ. eigenvalues --  -10.34684 -10.34260 -10.34031 -10.33957 -10.33547
 Alpha  occ. eigenvalues --  -10.33510 -10.33392 -10.33035 -10.31553 -10.30674
 Alpha  occ. eigenvalues --  -10.30270 -10.28793 -10.28475  -1.18556  -1.15792
 Alpha  occ. eigenvalues --   -1.13329  -1.12205  -1.11267  -1.11033  -1.10082
 Alpha  occ. eigenvalues --   -1.08609  -1.08253  -1.05638  -1.05585  -1.01584
 Alpha  occ. eigenvalues --   -1.01436  -1.01043  -0.99744  -0.98709  -0.97700
 Alpha  occ. eigenvalues --   -0.97039  -0.96911  -0.93308  -0.90097  -0.88261
 Alpha  occ. eigenvalues --   -0.86359  -0.84612  -0.84008  -0.83014  -0.82380
 Alpha  occ. eigenvalues --   -0.82344  -0.78008  -0.77580  -0.75545  -0.74931
 Alpha  occ. eigenvalues --   -0.73698  -0.73217  -0.72457  -0.71444  -0.71017
 Alpha  occ. eigenvalues --   -0.67528  -0.67403  -0.66629  -0.65703  -0.64794
 Alpha  occ. eigenvalues --   -0.64551  -0.63285  -0.63108  -0.62669  -0.61934
 Alpha  occ. eigenvalues --   -0.61255  -0.61036  -0.60810  -0.60026  -0.58920
 Alpha  occ. eigenvalues --   -0.58750  -0.58384  -0.57968  -0.56910  -0.56105
 Alpha  occ. eigenvalues --   -0.55766  -0.55698  -0.55569  -0.54958  -0.54233
 Alpha  occ. eigenvalues --   -0.54125  -0.54074  -0.53397  -0.53151  -0.52918
 Alpha  occ. eigenvalues --   -0.52044  -0.51794  -0.51246  -0.50765  -0.50642
 Alpha  occ. eigenvalues --   -0.50348  -0.50224  -0.49735  -0.49302  -0.49127
 Alpha  occ. eigenvalues --   -0.48614  -0.48183  -0.47987  -0.47347  -0.47117
 Alpha  occ. eigenvalues --   -0.46990  -0.45552  -0.45479  -0.45170  -0.42299
 Alpha  occ. eigenvalues --   -0.41522  -0.41244  -0.38791  -0.38280  -0.38173
 Alpha  occ. eigenvalues --   -0.38109  -0.37278  -0.36835  -0.35377  -0.35170
 Alpha  occ. eigenvalues --   -0.34848  -0.34105  -0.33937  -0.33729  -0.33089
 Alpha  occ. eigenvalues --   -0.32610  -0.32373  -0.31942  -0.31039  -0.30860
 Alpha  occ. eigenvalues --   -0.30794  -0.30679  -0.26485  -0.25495
 Alpha virt. eigenvalues --    0.02681   0.04700   0.05976   0.07423   0.08568
 Alpha virt. eigenvalues --    0.09068   0.09623   0.09893   0.10785   0.12357
 Alpha virt. eigenvalues --    0.13247   0.13724   0.14197   0.14412   0.14670

 Mulliken charges:
               1
     1  N   -0.299176
     2  C    0.188449
     3  C    0.063389
     4  N   -0.255749
     5  C    0.152099
     6  H    0.029371
     7  N   -0.284301
     8  C    0.126518
     9  H    0.001937
    10  N   -0.271305
    11  C    0.226226
    12  C    0.076935
    13  N   -0.062468
    14  H    0.114685
    15  H    0.083888
    16  H    0.023553
    17  H    0.028686
    18  H    0.017740
    19  N   -0.301079
    20  C    0.252474
    21  C    0.183758
    22  N   -0.104538
    23  H    0.121541
    24  H    0.118629
    25  N   -0.288214
    26  C    0.196058
    27  N   -0.117247
    28  H    0.119083
    29  C    0.179785
    30  O   -0.318444
    31  C   -0.011734
    32  N   -0.217527
    33  C    0.089481
    34  H    0.027045
    35  H    0.018449
    36  H    0.033669
    37  H    0.026931
    38  H    0.050953
    39  H    0.044032
    40  H    0.074429
    41  H    0.021260
    42  C   -0.107354
    43  O   -0.268871
    44  C    0.172811
    45  H    0.132869
    46  N   -0.124378
    47  O   -0.345398
    48  C    0.332565
    49  H    0.045649
    50  C    0.164618
    51  C    0.067669
    52  N   -0.275903
    53  H    0.035923
    54  H    0.041192
    55  H    0.031624
    56  H    0.121765
    57  H    0.120329
    58  N   -0.058151
    59  C    0.092727
    60  C    0.200001
    61  N   -0.261516
    62  H    0.034990
    63  C    0.151383
    64  N   -0.301734
    65  H    0.040850
    66  C    0.140922
    67  N   -0.255667
    68  C    0.037699
    69  C    0.179323
    70  N   -0.305205
 Sum of Mulliken charges =  -0.00000

 Dipole moment (field-independent basis, Debye):
    X=             -6.5649    Y=              7.6330    Z=             -1.8417  Tot=             10.2348
 Quadrupole moment (field-independent basis, Debye-Ang):
   XX=           -151.5486   YY=           -230.9418   ZZ=           -253.3032
   XY=              1.9492   XZ=            -15.2128   YZ=             15.7837

 Normal termination of Gaussian 16 at Sat Jan 20 13:18:20 2018.
