 Gaussian 16, Revision A.03,
 Gaussian 16:  EM64L-G16RevA.03 25-Dec-2016

 ---------------------------------------
 #p wb97xd/cc-pvdz sp scf=(maxcycles=20)
 ---------------------------------------

 ------------------
 Base pair stacking
 ------------------
 Symbolic Z-matrix:
 Charge =  0 Multiplicity = 1

                         Standard orientation:
 ---------------------------------------------------------------------
 Center     Atomic      Atomic             Coordinates (Angstroms)
 Number     Number       Type             X           Y           Z
 ---------------------------------------------------------------------
      1          7           0       -6.076134   -1.347026    0.775192
      2          6           0       -7.410777   -0.749491    0.974384
      3          6           0       -3.904002   -1.691614    0.755250
      4          7           0       -4.479985   -2.811693    0.173535
      5          6           0       -5.765556   -2.559264    0.208836
      6          1           0       -6.539412   -3.228703   -0.167912
      7          7           0       -2.334842   -0.150966    1.607954
      8          6           0       -3.378642    0.626463    1.914002
      9          1           0       -3.129135    1.573829    2.389918
     10          7           0       -4.678290    0.410347    1.721321
     11          6           0       -4.875319   -0.780158    1.131139
     12          6           0       -2.566219   -1.342553    1.014933
     13          7           0       -1.525573   -2.119993    0.708662
     14          1           0       -1.649948   -3.010156    0.268932
     15          1           0       -0.586659   -1.839322    0.908209
     16          1           0       -7.962237   -1.348279    1.555341
     17          1           0       -7.314911    0.143331    1.413478
     18          1           0       -7.863358   -0.637113    0.089773
     19          7           0       -3.919153    1.916498   -1.274151
     20          6           0       -2.552236    1.946622   -1.137509
     21          6           0       -4.841515    2.996594   -0.869983
     22          7           0        0.334575    3.595967   -0.133659
     23          1           0        1.318690    3.420847   -0.124062
     24          1           0        0.026282    4.473566    0.234442
     25          7           0       -1.827875    2.959846   -0.615264
     26          6           0       -0.533469    2.695054   -0.618173
     27          7           0        0.011881    1.527906   -1.095550
     28          1           0        1.012888    1.411558   -1.057913
     29          6           0       -0.714302    0.471934   -1.637232
     30          8           0       -0.124579   -0.538430   -2.039896
     31          6           0       -2.106446    0.741748   -1.640853
     32          7           0       -3.172057   -0.029277   -2.084574
     33          6           0       -4.224240    0.706205   -1.847538
     34          1           0       -5.250291    0.412919   -2.072199
     35          1           0       -5.482362    2.651120   -0.185329
     36          1           0       -4.316255    3.752632   -0.481674
     37          1           0       -5.348893    3.319906   -1.668009
     38          1           0        5.980839    1.183414    0.000446
     39          1           0        6.150684    1.639987   -1.692878
     40          1           0        4.761309    2.203395   -0.763594
     41          1           0        5.150514   -3.044742   -2.139597
     42          6           0        4.633638   -2.106337   -1.938421
     43          8           0        2.476932   -2.984129   -2.391428
     44          6           0        3.209427   -2.050099   -2.066117
     45          1           0        1.651811   -0.737449   -1.868422
     46          7           0        2.655895   -0.816385   -1.788991
     47          8           0        2.742545    1.372463   -1.190124
     48          6           0        3.321387    0.324049   -1.414753
     49          1           0        6.393892   -1.000884   -1.463800
     50          6           0        5.310446   -1.010652   -1.575106
     51          6           0        5.445973    1.382391   -0.916284
     52          7           0        4.692142    0.190012   -1.313394
     53          1           0        4.840941    2.537142    3.599041
     54          1           0        3.612259    2.953200    2.609434
     55          1           0        5.144774    2.943166    2.047837
     56          1           0        1.860875   -3.543052    0.563266
     57          1           0        3.523116   -3.410306    0.923025
     58          7           0        2.625563   -2.972198    0.862467
     59          6           0        2.456958   -1.683879    1.167402
     60          6           0        3.168221    0.474512    1.872531
     61          7           0        1.951394    1.036260    1.781995
     62          1           0        0.035892    0.516200    1.271143
     63          6           0        1.053849    0.142247    1.372060
     64          7           0        1.220735   -1.148538    1.066146
     65          1           0        6.344895    0.311161    2.450676
     66          6           0        5.305657    0.104527    2.193330
     67          7           0        4.853016   -1.060595    1.799264
     68          6           0        3.499039   -0.839894    1.592468
     69          6           0        4.497042    2.491023    2.661174
     70          7           0        4.340298    1.079381    2.260303
 ---------------------------------------------------------------------

 SCF Done:  E(RwB97XD) =  -2048.75472935     A.U. after   15 cycles

 The electronic state is 1-A.
 Alpha  occ. eigenvalues --  -19.25711 -19.21833 -19.20546 -14.52282 -14.52198
 Alpha  occ. eigenvalues --  -14.49188 -14.48511 -14.47655 -14.47391 -14.46779
 Alpha  occ. eigenvalues --  -14.46438 -14.45209 -14.43831 -14.43728 -14.42608
 Alpha  occ. eigenvalues --  -14.41857 -14.41697 -14.41426 -14.40691 -14.40601
 Alpha  occ. eigenvalues --  -10.45325 -10.41058 -10.39985 -10.39400 -10.38114
 Alpha  occ. eigenvalues --  -10.37738 -10.37559 -10.36838 -10.35794 -10.35358
 Alpha  occ. eigenvalues --  -10.35332 -10.34390 -10.34113 -10.33921 -10.33723
 Alpha  occ. eigenvalues --  -10.33471 -10.33167 -10.32235 -10.31521 -10.30783
 Alpha  occ. eigenvalues --  -10.30379 -10.28842 -10.27894  -1.19315  -1.14910
 Alpha  occ. eigenvalues --   -1.13074  -1.12882  -1.11720  -1.10395  -1.09167
 Alpha  occ. eigenvalues --   -1.08713  -1.08413  -1.05406  -1.04240  -1.02351
 Alpha  occ. eigenvalues --   -1.00832  -1.00660  -0.99546  -0.98390  -0.97335
 Alpha  occ. eigenvalues --   -0.96341  -0.96285  -0.93071  -0.90823  -0.87332
 Alpha  occ. eigenvalues --   -0.85720  -0.84347  -0.83864  -0.83655  -0.82734
 Alpha  occ. eigenvalues --   -0.82162  -0.78665  -0.76638  -0.74506  -0.74335
 Alpha  occ. eigenvalues --   -0.73480  -0.73268  -0.73201  -0.71435  -0.69997
 Alpha  occ. eigenvalues --   -0.67200  -0.66684  -0.66396  -0.66300  -0.64302
 Alpha  occ. eigenvalues --   -0.63826  -0.63573  -0.63086  -0.62520  -0.61574
 Alpha  occ. eigenvalues --   -0.60960  -0.60646  -0.60124  -0.59303  -0.59150
 Alpha  occ. eigenvalues --   -0.58489  -0.58167  -0.57083  -0.56936  -0.56240
 Alpha  occ. eigenvalues --   -0.55822  -0.55790  -0.55064  -0.54614  -0.54199
 Alpha  occ. eigenvalues --   -0.53740  -0.53435  -0.53097  -0.52956  -0.52721
 Alpha  occ. eigenvalues --   -0.52453  -0.52418  -0.52204  -0.51180  -0.50612
 Alpha  occ. eigenvalues --   -0.49954  -0.49714  -0.49322  -0.49103  -0.48937
 Alpha  occ. eigenvalues --   -0.48615  -0.48263  -0.48073  -0.47339  -0.47314
 Alpha  occ. eigenvalues --   -0.47253  -0.45593  -0.45230  -0.44336  -0.43558
 Alpha  occ. eigenvalues --   -0.41542  -0.40366  -0.39314  -0.37563  -0.37380
 Alpha  occ. eigenvalues --   -0.37199  -0.37140  -0.37085  -0.35931  -0.34430
 Alpha  occ. eigenvalues --   -0.34025  -0.33964  -0.33720  -0.33597  -0.33066
 Alpha  occ. eigenvalues --   -0.32534  -0.32205  -0.31801  -0.31748  -0.31274
 Alpha  occ. eigenvalues --   -0.30838  -0.29389  -0.26061  -0.25216
 Alpha virt. eigenvalues --    0.03263   0.04416   0.07475   0.07516   0.08323
 Alpha virt. eigenvalues --    0.08960   0.09919   0.10710   0.10893   0.11770
 Alpha virt. eigenvalues --    0.13213   0.13839   0.14164   0.14517   0.15017

 Mulliken charges:
               1
     1  N   -0.310070
     2  C    0.178734
     3  C    0.065386
     4  N   -0.253453
     5  C    0.130196
     6  H    0.027137
     7  N   -0.287015
     8  C    0.135035
     9  H    0.013993
    10  N   -0.288628
    11  C    0.227126
    12  C    0.098480
    13  N   -0.045868
    14  H    0.111131
    15  H    0.089030
    16  H    0.027915
    17  H    0.033975
    18  H    0.023083
    19  N   -0.297427
    20  C    0.249391
    21  C    0.182441
    22  N   -0.113470
    23  H    0.113935
    24  H    0.116097
    25  N   -0.304784
    26  C    0.229584
    27  N   -0.144265
    28  H    0.125692
    29  C    0.174698
    30  O   -0.324564
    31  C   -0.010193
    32  N   -0.220662
    33  C    0.126417
    34  H    0.018970
    35  H    0.023458
    36  H    0.027303
    37  H    0.020667
    38  H    0.045534
    39  H    0.061733
    40  H    0.074196
    41  H    0.025601
    42  C   -0.111257
    43  O   -0.271802
    44  C    0.165182
    45  H    0.133807
    46  N   -0.120874
    47  O   -0.340768
    48  C    0.339365
    49  H    0.044673
    50  C    0.182469
    51  C    0.041734
    52  N   -0.278658
    53  H    0.034787
    54  H    0.039127
    55  H    0.019484
    56  H    0.125669
    57  H    0.118170
    58  N   -0.052354
    59  C    0.103867
    60  C    0.237548
    61  N   -0.270028
    62  H    0.039882
    63  C    0.149897
    64  N   -0.301445
    65  H    0.036524
    66  C    0.108342
    67  N   -0.249705
    68  C    0.018900
    69  C    0.182497
    70  N   -0.301573
 Sum of Mulliken charges =  -0.00000

 Dipole moment (field-independent basis, Debye):
    X=              6.1623    Y=              6.2189    Z=              3.7187  Tot=              9.5120
 Quadrupole moment (field-independent basis, Debye-Ang):
   XX=           -145.6420   YY=           -224.8254   ZZ=           -258.5394
   XY=             10.0496   XZ=              7.1287   YZ=             -5.5584

 Normal termination of Gaussian 16 at Sat Jan 20 07:30:20 2018.
