 Gaussian 16, Revision A.03,
 Gaussian 16:  EM64L-G16RevA.03 25-Dec-2016

 ---------------------------------------
 #p wb97xd/cc-pvdz sp scf=(maxcycles=20)
 ---------------------------------------

 ------------------
 Base pair stacking
 ------------------
 Symbolic Z-matrix:
 Charge =  0 Multiplicity = 1

                         Standard orientation:
 ---------------------------------------------------------------------
 Center     Atomic      Atomic             Coordinates (Angstroms)
 Number     Number       Type             X           Y           Z
 ---------------------------------------------------------------------
      1          7           0        4.538198   -2.292807   -1.108317
      2          6           0        5.842540   -2.090748   -1.768523
      3          6           0        2.396606   -2.230548   -0.611330
      4          7           0        3.000733   -3.001658    0.371090
      5          6           0        4.266788   -3.008302    0.032353
      6          1           0        5.053459   -3.523947    0.583910
      7          7           0        0.795981   -1.070867   -1.898220
      8          6           0        1.806814   -0.719672   -2.699764
      9          1           0        1.531279   -0.097757   -3.550386
     10          7           0        3.100812   -1.019960   -2.608736
     11          6           0        3.331613   -1.786628   -1.530141
     12          6           0        1.060842   -1.842581   -0.821473
     13          7           0        0.053146   -2.194192   -0.020168
     14          1           0        0.202991   -2.764512    0.788221
     15          1           0       -0.885414   -1.899669   -0.200481
     16          1           0        6.223227   -2.976155   -2.035567
     17          1           0        5.720858   -1.522396   -2.581719
     18          1           0        6.471113   -1.636314   -1.137346
     19          7           0        5.449274    1.776835    0.187191
     20          6           0        4.087251    1.946519    0.251694
     21          6           0        6.384613    2.651323   -0.548402
     22          7           0        1.234276    3.730012   -0.609359
     23          1           0        0.250778    3.675299   -0.439147
     24          1           0        1.554566    4.486573   -1.180116
     25          7           0        3.380257    2.932700   -0.341315
     26          6           0        2.086151    2.829773   -0.095760
     27          7           0        1.525285    1.837725    0.671562
     28          1           0        0.525827    1.837592    0.805844
     29          6           0        2.233466    0.812922    1.291353
     30          8           0        1.630694   -0.033595    1.962776
     31          6           0        3.625066    0.910178    1.036669
     32          7           0        4.675785    0.106058    1.456524
     33          6           0        5.735433    0.657278    0.929730
     34          1           0        6.753794    0.286654    1.051538
     35          1           0        6.867386    2.117426   -1.241725
     36          1           0        5.872273    3.385596   -0.991822
     37          1           0        7.046024    3.045514    0.088754
     38          1           0       -4.549266    2.026393    0.559807
     39          1           0       -4.390178    2.788160    2.140647
     40          1           0       -3.131416    3.010081    0.925077
     41          1           0       -3.757715   -1.832637    3.321668
     42          6           0       -3.199123   -1.012593    2.870299
     43          8           0       -1.085474   -2.050388    3.157664
     44          6           0       -1.774549   -1.106306    2.772092
     45          1           0       -0.159871   -0.044783    2.098075
     46          7           0       -1.165996   -0.015272    2.185106
     47          8           0       -1.153372    2.030013    1.198280
     48          6           0       -1.778813    1.113983    1.702633
     49          1           0       -4.906622    0.196359    2.459573
     50          6           0       -3.825273    0.076184    2.408659
     51          6           0       -3.852213    2.316460    1.331851
     52          7           0       -3.153539    1.129827    1.833339
     53          1           0       -6.434376    1.419534   -3.948114
     54          1           0       -5.005692    2.061351   -3.490920
     55          1           0       -6.390174    2.571911   -2.793338
     56          1           0       -3.322819   -2.802169    1.301740
     57          1           0       -5.010518   -2.596621    1.161980
     58          7           0       -4.091575   -2.334915    0.864873
     59          6           0       -3.900862   -1.404082   -0.072322
     60          6           0       -4.591489    0.220277   -1.668016
     61          7           0       -3.346153    0.551526   -2.047263
     62          1           0       -1.406814    0.046281   -1.617926
     63          6           0       -2.447190   -0.160648   -1.370815
     64          7           0       -2.636200   -1.093409   -0.431771
     65          1           0       -7.823062    0.308223   -1.630331
     66          6           0       -6.769761    0.089319   -1.452591
     67          7           0       -6.327129   -0.792010   -0.589445
     68          6           0       -4.947486   -0.719043   -0.715926
     69          6           0       -5.912015    1.781221   -3.175907
     70          7           0       -5.773852    0.738983   -2.140210
 ---------------------------------------------------------------------

 SCF Done:  E(RwB97XD) =  -2048.73462953     A.U. after   15 cycles

 The electronic state is 1-A.
 Alpha  occ. eigenvalues --  -19.25548 -19.22227 -19.20851 -14.52531 -14.52116
 Alpha  occ. eigenvalues --  -14.49388 -14.48039 -14.47838 -14.47601 -14.47141
 Alpha  occ. eigenvalues --  -14.46964 -14.45473 -14.44537 -14.44531 -14.42334
 Alpha  occ. eigenvalues --  -14.42053 -14.41614 -14.40692 -14.40427 -14.40189
 Alpha  occ. eigenvalues --  -10.45123 -10.41568 -10.40165 -10.39932 -10.38537
 Alpha  occ. eigenvalues --  -10.38050 -10.37382 -10.37158 -10.36001 -10.35187
 Alpha  occ. eigenvalues --  -10.34872 -10.34844 -10.34005 -10.33860 -10.33279
 Alpha  occ. eigenvalues --  -10.32897 -10.32893 -10.32868 -10.31464 -10.30831
 Alpha  occ. eigenvalues --  -10.30556 -10.28610 -10.28051  -1.19116  -1.15300
 Alpha  occ. eigenvalues --   -1.13536  -1.13157  -1.11089  -1.10647  -1.09592
 Alpha  occ. eigenvalues --   -1.08952  -1.08819  -1.05009  -1.04792  -1.02280
 Alpha  occ. eigenvalues --   -1.01040  -1.00152  -1.00051  -0.98931  -0.97129
 Alpha  occ. eigenvalues --   -0.97076  -0.96267  -0.92486  -0.90823  -0.87746
 Alpha  occ. eigenvalues --   -0.85934  -0.84636  -0.83420  -0.83351  -0.82997
 Alpha  occ. eigenvalues --   -0.81842  -0.78710  -0.77128  -0.75080  -0.74960
 Alpha  occ. eigenvalues --   -0.73970  -0.73178  -0.72463  -0.70698  -0.70506
 Alpha  occ. eigenvalues --   -0.67767  -0.66965  -0.66340  -0.65876  -0.64832
 Alpha  occ. eigenvalues --   -0.64445  -0.63680  -0.62945  -0.62319  -0.62156
 Alpha  occ. eigenvalues --   -0.60672  -0.60409  -0.60155  -0.59375  -0.59239
 Alpha  occ. eigenvalues --   -0.59107  -0.58682  -0.57238  -0.56199  -0.55998
 Alpha  occ. eigenvalues --   -0.55801  -0.55382  -0.55096  -0.54509  -0.54269
 Alpha  occ. eigenvalues --   -0.53873  -0.53807  -0.53664  -0.53351  -0.53228
 Alpha  occ. eigenvalues --   -0.52809  -0.52239  -0.51311  -0.50571  -0.50391
 Alpha  occ. eigenvalues --   -0.50113  -0.49822  -0.49702  -0.49407  -0.49141
 Alpha  occ. eigenvalues --   -0.48720  -0.48542  -0.48267  -0.48074  -0.47495
 Alpha  occ. eigenvalues --   -0.46551  -0.45912  -0.45744  -0.44637  -0.42513
 Alpha  occ. eigenvalues --   -0.40835  -0.40790  -0.39286  -0.38208  -0.37726
 Alpha  occ. eigenvalues --   -0.37659  -0.37591  -0.36657  -0.35818  -0.34890
 Alpha  occ. eigenvalues --   -0.34477  -0.34278  -0.33488  -0.33146  -0.33016
 Alpha  occ. eigenvalues --   -0.32991  -0.32881  -0.32096  -0.31825  -0.30469
 Alpha  occ. eigenvalues --   -0.30133  -0.29360  -0.26086  -0.25292
 Alpha virt. eigenvalues --    0.02322   0.04376   0.06981   0.08317   0.08642
 Alpha virt. eigenvalues --    0.08913   0.09464   0.10409   0.11278   0.11843
 Alpha virt. eigenvalues --    0.13000   0.13459   0.14182   0.14662   0.15136

 Mulliken charges:
               1
     1  N   -0.305905
     2  C    0.183727
     3  C    0.047548
     4  N   -0.247289
     5  C    0.151812
     6  H    0.024863
     7  N   -0.298073
     8  C    0.129918
     9  H    0.009090
    10  N   -0.286012
    11  C    0.239697
    12  C    0.084853
    13  N   -0.059780
    14  H    0.119828
    15  H    0.089448
    16  H    0.024154
    17  H    0.031053
    18  H    0.015044
    19  N   -0.311568
    20  C    0.260425
    21  C    0.182020
    22  N   -0.124153
    23  H    0.118516
    24  H    0.119539
    25  N   -0.312708
    26  C    0.251571
    27  N   -0.148415
    28  H    0.120765
    29  C    0.196573
    30  O   -0.319003
    31  C   -0.016018
    32  N   -0.221985
    33  C    0.113993
    34  H    0.024857
    35  H    0.024897
    36  H    0.032031
    37  H    0.025930
    38  H    0.060251
    39  H    0.058153
    40  H    0.074837
    41  H    0.016787
    42  C   -0.115764
    43  O   -0.276705
    44  C    0.170800
    45  H    0.131347
    46  N   -0.119708
    47  O   -0.353297
    48  C    0.347595
    49  H    0.043880
    50  C    0.169588
    51  C    0.043557
    52  N   -0.276411
    53  H    0.034539
    54  H    0.042866
    55  H    0.028403
    56  H    0.127044
    57  H    0.114780
    58  N   -0.043938
    59  C    0.076042
    60  C    0.234056
    61  N   -0.265891
    62  H    0.033935
    63  C    0.169880
    64  N   -0.310667
    65  H    0.038940
    66  C    0.137368
    67  N   -0.260689
    68  C    0.027368
    69  C    0.179836
    70  N   -0.310021
 Sum of Mulliken charges =  -0.00000

 Dipole moment (field-independent basis, Debye):
    X=             -6.3285    Y=              7.1653    Z=             -3.6578  Tot=             10.2358
 Quadrupole moment (field-independent basis, Debye-Ang):
   XX=           -150.3855   YY=           -224.8925   ZZ=           -253.9140
   XY=             -7.4973   XZ=             -8.2318   YZ=             -4.0374

 Normal termination of Gaussian 16 at Sat Jan 20 21:42:11 2018.
