 Gaussian 16, Revision A.03,
 Gaussian 16:  EM64L-G16RevA.03 25-Dec-2016

 ---------------------------------------
 #p wb97xd/cc-pvdz sp scf=(maxcycles=20)
 ---------------------------------------

 ------------------
 Base pair stacking
 ------------------
 Symbolic Z-matrix:
 Charge =  0 Multiplicity = 1

                         Standard orientation:
 ---------------------------------------------------------------------
 Center     Atomic      Atomic             Coordinates (Angstroms)
 Number     Number       Type             X           Y           Z
 ---------------------------------------------------------------------
      1          7           0        4.230029   -1.961661   -1.667293
      2          6           0        5.531752   -1.599617   -2.260955
      3          6           0        2.093743   -2.014443   -1.146906
      4          7           0        2.694421   -3.035436   -0.424773
      5          6           0        3.957421   -2.962768   -0.767189
      6          1           0        4.740868   -3.620781   -0.390121
      7          7           0        0.499960   -0.523667   -2.041568
      8          6           0        1.509264    0.024409   -2.726035
      9          1           0        1.236005    0.861538   -3.366975
     10          7           0        2.799378   -0.304779   -2.737573
     11          6           0        3.027654   -1.343783   -1.917337
     12          6           0        0.762192   -1.567418   -1.224925
     13          7           0       -0.243988   -2.115864   -0.540850
     14          1           0       -0.095978   -2.890202    0.075367
     15          1           0       -1.179535   -1.771642   -0.620939
     16          1           0        5.897071   -2.380357   -2.768057
     17          1           0        5.411832   -0.826177   -2.882679
     18          1           0        6.172150   -1.346108   -1.535952
     19          7           0        5.735424    1.548548    0.405475
     20          6           0        4.377064    1.714032    0.530039
     21          6           0        6.667841    2.542234   -0.163623
     22          7           0        1.531153    3.656338    0.094140
     23          1           0        0.550366    3.577792    0.270567
     24          1           0        1.850254    4.507355   -0.323777
     25          7           0        3.671594    2.803445    0.156475
     26          6           0        2.381070    2.665518    0.403714
     27          7           0        1.822148    1.547108    0.973165
     28          1           0        0.825417    1.529265    1.125392
     29          6           0        2.528814    0.414566    1.365397
     30          8           0        1.928041   -0.541977    1.870220
     31          6           0        3.916574    0.547871    1.106082
     32          7           0        4.964744   -0.332025    1.338487
     33          6           0        6.021263    0.302661    0.908198
     34          1           0        7.036991   -0.093442    0.933999
     35          1           0        7.130975    2.150552   -0.957913
     36          1           0        6.156599    3.353611   -0.443905
     37          1           0        7.345815    2.798054    0.524658
     38          1           0       -4.250599    1.806457    1.025785
     39          1           0       -4.052746    2.241924    2.721626
     40          1           0       -2.814033    2.687105    1.547416
     41          1           0       -3.456354   -2.526046    2.961014
     42          6           0       -2.896008   -1.638248    2.667661
     43          8           0       -0.790541   -2.730454    2.702483
     44          6           0       -1.474781   -1.723169    2.523653
     45          1           0        0.140287   -0.564039    2.037578
     46          7           0       -0.863600   -0.543488    2.149429
     47          8           0       -0.843689    1.655456    1.582452
     48          6           0       -1.471083    0.663719    1.910308
     49          1           0       -4.595562   -0.357522    2.537071
     50          6           0       -3.516933   -0.474702    2.441319
     51          6           0       -3.535792    1.933417    1.825159
     52          7           0       -2.842847    0.665479    2.069902
     53          1           0       -6.709304    2.524635   -3.231787
     54          1           0       -5.267562    2.996933   -2.631444
     55          1           0       -6.638555    3.309929   -1.802896
     56          1           0       -3.617629   -3.027007    0.600489
     57          1           0       -5.303182   -2.770558    0.543612
     58          7           0       -4.382930   -2.447569    0.319928
     59          6           0       -4.186156   -1.295231   -0.323935
     60          6           0       -4.865733    0.716836   -1.397008
     61          7           0       -3.618775    1.125557   -1.684205
     62          1           0       -1.683683    0.497747   -1.435477
     63          6           0       -2.724939    0.242719   -1.243132
     64          7           0       -2.920029   -0.912018   -0.598042
     65          1           0       -8.095216    0.829438   -1.297586
     66          6           0       -7.043859    0.557182   -1.200331
     67          7           0       -6.607262   -0.534585   -0.621456
     68          6           0       -5.227773   -0.445826   -0.739223
     69          6           0       -6.175316    2.651116   -2.395811
     70          7           0       -6.044114    1.360459   -1.692246
 ---------------------------------------------------------------------

 SCF Done:  E(RwB97XD) =  -2048.74524545     A.U. after   15 cycles

 The electronic state is 1-A.
 Alpha  occ. eigenvalues --  -19.25444 -19.21792 -19.20838 -14.52582 -14.51962
 Alpha  occ. eigenvalues --  -14.49511 -14.48258 -14.48067 -14.47420 -14.47132
 Alpha  occ. eigenvalues --  -14.46947 -14.45485 -14.44729 -14.44707 -14.42381
 Alpha  occ. eigenvalues --  -14.42347 -14.41783 -14.40864 -14.40493 -14.40396
 Alpha  occ. eigenvalues --  -10.45017 -10.41582 -10.40194 -10.39856 -10.38555
 Alpha  occ. eigenvalues --  -10.38086 -10.37482 -10.37316 -10.36155 -10.35411
 Alpha  occ. eigenvalues --  -10.34935 -10.34647 -10.34140 -10.33901 -10.33332
 Alpha  occ. eigenvalues --  -10.33029 -10.33015 -10.33010 -10.31569 -10.30622
 Alpha  occ. eigenvalues --  -10.30429 -10.28692 -10.28198  -1.18988  -1.15365
 Alpha  occ. eigenvalues --   -1.13566  -1.12794  -1.11176  -1.10720  -1.09696
 Alpha  occ. eigenvalues --   -1.08911  -1.08759  -1.05140  -1.04989  -1.02069
 Alpha  occ. eigenvalues --   -1.01084  -1.00383  -1.00053  -0.98982  -0.97225
 Alpha  occ. eigenvalues --   -0.97219  -0.96342  -0.92695  -0.90649  -0.87848
 Alpha  occ. eigenvalues --   -0.85992  -0.84727  -0.83485  -0.83215  -0.83032
 Alpha  occ. eigenvalues --   -0.81872  -0.78515  -0.77235  -0.75135  -0.75100
 Alpha  occ. eigenvalues --   -0.73988  -0.72983  -0.72601  -0.70844  -0.70606
 Alpha  occ. eigenvalues --   -0.67792  -0.67038  -0.66197  -0.66029  -0.64765
 Alpha  occ. eigenvalues --   -0.64455  -0.63677  -0.62962  -0.62480  -0.62180
 Alpha  occ. eigenvalues --   -0.60720  -0.60493  -0.60160  -0.59515  -0.59191
 Alpha  occ. eigenvalues --   -0.59054  -0.58673  -0.57388  -0.56308  -0.55926
 Alpha  occ. eigenvalues --   -0.55739  -0.55495  -0.55258  -0.54636  -0.54345
 Alpha  occ. eigenvalues --   -0.53873  -0.53776  -0.53643  -0.53350  -0.53007
 Alpha  occ. eigenvalues --   -0.52773  -0.52010  -0.51331  -0.50592  -0.50466
 Alpha  occ. eigenvalues --   -0.50201  -0.49849  -0.49684  -0.49422  -0.49119
 Alpha  occ. eigenvalues --   -0.48649  -0.48484  -0.48349  -0.47875  -0.47396
 Alpha  occ. eigenvalues --   -0.46644  -0.45811  -0.45713  -0.44842  -0.42763
 Alpha  occ. eigenvalues --   -0.41048  -0.40884  -0.39209  -0.38142  -0.37807
 Alpha  occ. eigenvalues --   -0.37772  -0.37626  -0.36779  -0.35567  -0.35062
 Alpha  occ. eigenvalues --   -0.34662  -0.34315  -0.33394  -0.33241  -0.33142
 Alpha  occ. eigenvalues --   -0.33016  -0.32759  -0.32156  -0.31505  -0.30551
 Alpha  occ. eigenvalues --   -0.30296  -0.30156  -0.26110  -0.25522
 Alpha virt. eigenvalues --    0.02414   0.04535   0.06638   0.08188   0.08532
 Alpha virt. eigenvalues --    0.08919   0.09437   0.10351   0.11118   0.11976
 Alpha virt. eigenvalues --    0.13242   0.13517   0.14148   0.14707   0.15058

 Mulliken charges:
               1
     1  N   -0.304394
     2  C    0.184783
     3  C    0.047335
     4  N   -0.247455
     5  C    0.154217
     6  H    0.027087
     7  N   -0.298057
     8  C    0.128298
     9  H    0.008843
    10  N   -0.283352
    11  C    0.238856
    12  C    0.082408
    13  N   -0.064685
    14  H    0.119257
    15  H    0.088457
    16  H    0.023200
    17  H    0.030242
    18  H    0.016706
    19  N   -0.311045
    20  C    0.259635
    21  C    0.182168
    22  N   -0.123579
    23  H    0.119168
    24  H    0.119591
    25  N   -0.312404
    26  C    0.252124
    27  N   -0.146910
    28  H    0.120598
    29  C    0.196826
    30  O   -0.317164
    31  C   -0.017103
    32  N   -0.225055
    33  C    0.110980
    34  H    0.026376
    35  H    0.024171
    36  H    0.032521
    37  H    0.026494
    38  H    0.060207
    39  H    0.057034
    40  H    0.075277
    41  H    0.017405
    42  C   -0.118984
    43  O   -0.273447
    44  C    0.169167
    45  H    0.132303
    46  N   -0.123097
    47  O   -0.352996
    48  C    0.349442
    49  H    0.044507
    50  C    0.176830
    51  C    0.043221
    52  N   -0.277376
    53  H    0.034611
    54  H    0.042383
    55  H    0.029449
    56  H    0.126128
    57  H    0.116340
    58  N   -0.048652
    59  C    0.073553
    60  C    0.227776
    61  N   -0.262711
    62  H    0.034545
    63  C    0.166434
    64  N   -0.307880
    65  H    0.039655
    66  C    0.140468
    67  N   -0.260238
    68  C    0.030478
    69  C    0.179482
    70  N   -0.310450
 Sum of Mulliken charges =  -0.00000

 Dipole moment (field-independent basis, Debye):
    X=             -6.3190    Y=              7.7750    Z=             -2.1505  Tot=             10.2472
 Quadrupole moment (field-independent basis, Debye-Ang):
   XX=           -151.4562   YY=           -224.4682   ZZ=           -254.5522
   XY=             -4.2567   XZ=            -13.6905   YZ=              3.5556

 Normal termination of Gaussian 16 at Sat Jan 20 18:05:19 2018.
