 Gaussian 16, Revision A.03,
 Gaussian 16:  EM64L-G16RevA.03 25-Dec-2016

 ---------------------------------------
 #p wb97xd/cc-pvdz sp scf=(maxcycles=20)
 ---------------------------------------

 ------------------
 Base pair stacking
 ------------------
 Symbolic Z-matrix:
 Charge =  0 Multiplicity = 1

                         Standard orientation:
 ---------------------------------------------------------------------
 Center     Atomic      Atomic             Coordinates (Angstroms)
 Number     Number       Type             X           Y           Z
 ---------------------------------------------------------------------
      1          7           0       -6.587307   -1.075153    0.489653
      2          6           0       -7.899824   -0.403460    0.425204
      3          6           0       -4.437882   -1.481671    0.717681
      4          7           0       -5.033540   -2.698672    0.419638
      5          6           0       -6.304652   -2.405047    0.294192
      6          1           0       -7.087216   -3.126546    0.057595
      7          7           0       -2.847176    0.181666    1.233351
      8          6           0       -3.867084    1.046100    1.243760
      9          1           0       -3.599248    2.078689    1.463508
     10          7           0       -5.162099    0.827529    1.024518
     11          6           0       -5.382982   -0.471657    0.764230
     12          6           0       -3.102179   -1.118234    0.968187
     13          7           0       -2.085399   -1.982645    0.957344
     14          1           0       -2.227771   -2.954381    0.765854
     15          1           0       -1.147191   -1.688547    1.140167
     16          1           0       -8.514325   -0.803639    1.105216
     17          1           0       -7.785693    0.571584    0.613339
     18          1           0       -8.292565   -0.521484   -0.486839
     19          7           0       -3.360527    1.736112   -1.466404
     20          6           0       -2.003891    1.754366   -1.249021
     21          6           0       -4.292282    2.834227   -1.139810
     22          7           0        0.837649    3.393040   -0.107913
     23          1           0        1.817278    3.207584   -0.036050
     24          1           0        0.518537    4.281353    0.223434
     25          7           0       -1.299798    2.770354   -0.704908
     26          6           0       -0.010769    2.491651   -0.625209
     27          7           0        0.547995    1.309059   -1.045631
     28          1           0        1.543519    1.182757   -0.945970
     29          6           0       -0.157278    0.249933   -1.608399
     30          8           0        0.443213   -0.774855   -1.954756
     31          6           0       -1.543411    0.534576   -1.700554
     32          7           0       -2.589894   -0.233992   -2.191538
     33          6           0       -3.645435    0.517529   -2.032576
     34          1           0       -4.659749    0.230702   -2.312159
     35          1           0       -4.976821    2.509951   -0.487850
     36          1           0       -3.782045    3.592468   -0.736086
     37          1           0       -4.747397    3.146342   -1.973035
     38          1           0        6.436637    0.923196    0.411527
     39          1           0        6.712363    1.342664   -1.277463
     40          1           0        5.277011    1.940155   -0.444305
     41          1           0        5.684505   -3.339302   -1.688953
     42          6           0        5.167845   -2.391411   -1.537885
     43          8           0        3.031546   -3.255172   -2.101143
     44          6           0        3.754532   -2.322525   -1.751493
     45          1           0        2.203743   -0.989364   -1.673565
     46          7           0        3.200309   -1.077443   -1.532747
     47          8           0        3.277394    1.122305   -0.973847
     48          6           0        3.855973    0.063294   -1.142411
     49          1           0        6.909867   -1.295347   -0.981295
     50          6           0        5.834917   -1.295761   -1.156872
     51          6           0        5.959671    1.108837   -0.539320
     52          7           0        5.216566   -0.083353   -0.956721
     53          1           0        4.322650    3.078359    2.931926
     54          1           0        3.177685    3.248737    1.782096
     55          1           0        4.738560    3.037164    1.354347
     56          1           0        1.228052   -3.499480    1.441578
     57          1           0        2.870412   -3.327287    1.869518
     58          7           0        2.001177   -2.893601    1.629590
     59          6           0        1.879477   -1.566199    1.563587
     60          6           0        2.654694    0.678632    1.710204
     61          7           0        1.475157    1.233320    1.385497
     62          1           0       -0.430091    0.655642    0.898734
     63          6           0        0.559986    0.290785    1.168701
     64          7           0        0.679911   -1.039212    1.234321
     65          1           0        5.778967    0.576876    2.535260
     66          6           0        4.747905    0.341491    2.269863
     67          7           0        4.261759   -0.871756    2.172935
     68          6           0        2.935322   -0.672299    1.818651
     69          6           0        4.033499    2.789918    2.019129
     70          7           0        3.830387    1.328246    2.003074
 ---------------------------------------------------------------------

 SCF Done:  E(RwB97XD) =  -2048.72098194     A.U. after   15 cycles

 The electronic state is 1-A.
 Alpha  occ. eigenvalues --  -19.25910 -19.21888 -19.20477 -14.52504 -14.51812
 Alpha  occ. eigenvalues --  -14.49715 -14.48244 -14.47856 -14.47327 -14.46302
 Alpha  occ. eigenvalues --  -14.45890 -14.44798 -14.43496 -14.43099 -14.42948
 Alpha  occ. eigenvalues --  -14.42300 -14.42006 -14.41826 -14.41029 -14.40561
 Alpha  occ. eigenvalues --  -10.45531 -10.40678 -10.40009 -10.39158 -10.37922
 Alpha  occ. eigenvalues --  -10.37664 -10.37412 -10.36471 -10.36355 -10.35804
 Alpha  occ. eigenvalues --  -10.35230 -10.34935 -10.34346 -10.34140 -10.34065
 Alpha  occ. eigenvalues --  -10.33977 -10.33029 -10.31834 -10.31715 -10.30960
 Alpha  occ. eigenvalues --  -10.29469 -10.29454 -10.27788  -1.19585  -1.14559
 Alpha  occ. eigenvalues --   -1.13065  -1.12933  -1.12297  -1.10296  -1.09378
 Alpha  occ. eigenvalues --   -1.08575  -1.08186  -1.05962  -1.04044  -1.02499
 Alpha  occ. eigenvalues --   -1.01449  -1.00409  -0.99288  -0.98318  -0.97868
 Alpha  occ. eigenvalues --   -0.96215  -0.95985  -0.93640  -0.91007  -0.87159
 Alpha  occ. eigenvalues --   -0.85662  -0.84912  -0.84011  -0.83632  -0.83224
 Alpha  occ. eigenvalues --   -0.81749  -0.78852  -0.76464  -0.74349  -0.74264
 Alpha  occ. eigenvalues --   -0.73805  -0.73403  -0.73278  -0.72068  -0.69893
 Alpha  occ. eigenvalues --   -0.67262  -0.67055  -0.66531  -0.66228  -0.64459
 Alpha  occ. eigenvalues --   -0.63886  -0.63606  -0.63388  -0.62642  -0.61351
 Alpha  occ. eigenvalues --   -0.61115  -0.61073  -0.60173  -0.59521  -0.59125
 Alpha  occ. eigenvalues --   -0.58470  -0.57984  -0.57651  -0.57369  -0.56623
 Alpha  occ. eigenvalues --   -0.56151  -0.55940  -0.55081  -0.54980  -0.54435
 Alpha  occ. eigenvalues --   -0.54212  -0.53282  -0.53171  -0.52780  -0.52529
 Alpha  occ. eigenvalues --   -0.52453  -0.52289  -0.52014  -0.51504  -0.50936
 Alpha  occ. eigenvalues --   -0.49964  -0.49805  -0.49390  -0.49059  -0.48644
 Alpha  occ. eigenvalues --   -0.48458  -0.48146  -0.47951  -0.47785  -0.47356
 Alpha  occ. eigenvalues --   -0.47185  -0.45655  -0.45430  -0.44090  -0.43393
 Alpha  occ. eigenvalues --   -0.42006  -0.40515  -0.39549  -0.38268  -0.37433
 Alpha  occ. eigenvalues --   -0.37266  -0.37028  -0.36572  -0.35490  -0.34631
 Alpha  occ. eigenvalues --   -0.34414  -0.34087  -0.33792  -0.33069  -0.32883
 Alpha  occ. eigenvalues --   -0.32500  -0.32031  -0.31858  -0.31683  -0.31603
 Alpha  occ. eigenvalues --   -0.31323  -0.28662  -0.26714  -0.24985
 Alpha virt. eigenvalues --    0.03163   0.04619   0.06994   0.07750   0.08436
 Alpha virt. eigenvalues --    0.09238   0.09858   0.10100   0.11066   0.11708
 Alpha virt. eigenvalues --    0.13116   0.13237   0.14312   0.14603   0.14980

 Mulliken charges:
               1
     1  N   -0.312211
     2  C    0.179467
     3  C    0.059838
     4  N   -0.256643
     5  C    0.132535
     6  H    0.029162
     7  N   -0.270341
     8  C    0.133026
     9  H    0.019392
    10  N   -0.291835
    11  C    0.230161
    12  C    0.100102
    13  N   -0.046912
    14  H    0.108238
    15  H    0.088269
    16  H    0.028486
    17  H    0.034250
    18  H    0.026601
    19  N   -0.288111
    20  C    0.238009
    21  C    0.173135
    22  N   -0.076954
    23  H    0.109765
    24  H    0.109807
    25  N   -0.290858
    26  C    0.194811
    27  N   -0.129767
    28  H    0.127225
    29  C    0.140171
    30  O   -0.322503
    31  C    0.022354
    32  N   -0.220880
    33  C    0.114630
    34  H    0.021495
    35  H    0.021558
    36  H    0.024098
    37  H    0.017696
    38  H    0.043262
    39  H    0.064763
    40  H    0.073686
    41  H    0.030409
    42  C   -0.107834
    43  O   -0.266403
    44  C    0.179608
    45  H    0.133218
    46  N   -0.129298
    47  O   -0.342123
    48  C    0.346405
    49  H    0.045995
    50  C    0.179126
    51  C    0.037474
    52  N   -0.281874
    53  H    0.034622
    54  H    0.027984
    55  H    0.013302
    56  H    0.121085
    57  H    0.119621
    58  N   -0.064274
    59  C    0.121991
    60  C    0.237428
    61  N   -0.295981
    62  H    0.032270
    63  C    0.185090
    64  N   -0.306689
    65  H    0.037818
    66  C    0.101641
    67  N   -0.246360
    68  C    0.005550
    69  C    0.184365
    70  N   -0.293143
 Sum of Mulliken charges =  -0.00000

 Dipole moment (field-independent basis, Debye):
    X=              5.6255    Y=              5.8641    Z=              4.2088  Tot=              9.1513
 Quadrupole moment (field-independent basis, Debye-Ang):
   XX=           -142.5769   YY=           -228.1920   ZZ=           -258.5020
   XY=             14.0157   XZ=             10.9607   YZ=             -9.8367

 Normal termination of Gaussian 16 at Sat Jan 20 15:54:53 2018.
