 Gaussian 16, Revision A.03,
 Gaussian 16:  EM64L-G16RevA.03 25-Dec-2016

 ---------------------------------------
 #p wb97xd/cc-pvdz sp scf=(maxcycles=20)
 ---------------------------------------

 ------------------
 Base pair stacking
 ------------------
 Symbolic Z-matrix:
 Charge =  0 Multiplicity = 1

                         Standard orientation:
 ---------------------------------------------------------------------
 Center     Atomic      Atomic             Coordinates (Angstroms)
 Number     Number       Type             X           Y           Z
 ---------------------------------------------------------------------
      1          7           0        5.486860   -1.613489   -1.079351
      2          6           0        6.824685   -1.100025   -1.432325
      3          6           0        3.310523   -1.861232   -0.880646
      4          7           0        3.885748   -2.929834   -0.208375
      5          6           0        5.173894   -2.737802   -0.354996
      6          1           0        5.948013   -3.391284    0.048285
      7          7           0        1.741116   -0.364616   -1.808022
      8          6           0        2.787885    0.327307   -2.269643
      9          1           0        2.539410    1.222930   -2.837422
     10          7           0        4.089384    0.080150   -2.135828
     11          6           0        4.284903   -1.041323   -1.422731
     12          6           0        1.971031   -1.488278   -1.094154
     13          7           0        0.927417   -2.180322   -0.632508
     14          1           0        1.050625   -3.018074   -0.099388
     15          1           0       -0.012640   -1.885155   -0.803708
     16          1           0        7.314257   -1.784827   -1.972287
     17          1           0        6.730038   -0.260765   -1.966941
     18          1           0        7.340109   -0.905287   -0.597816
     19          7           0        4.543485    1.870357    0.982574
     20          6           0        3.172250    1.941322    0.930213
     21          6           0        5.471503    2.906011    0.485706
     22          7           0        0.280319    3.652607    0.052747
     23          1           0       -0.707398    3.509909    0.110230
     24          1           0        0.591805    4.507428   -0.363161
     25          7           0        2.448107    2.960888    0.420167
     26          6           0        1.148883    2.739285    0.512445
     27          7           0        0.598856    1.606518    1.061835
     28          1           0       -0.405651    1.522206    1.090435
     29          6           0        1.324715    0.544785    1.592604
     30          8           0        0.730566   -0.432260    2.064939
     31          6           0        2.722001    0.768402    1.500598
     32          7           0        3.789098   -0.023003    1.902944
     33          6           0        4.846501    0.669405    1.576334
     34          1           0        5.875113    0.349604    1.746535
     35          1           0        6.056780    2.518018   -0.225432
     36          1           0        4.946469    3.666330    0.105548
     37          1           0        6.038098    3.237492    1.239306
     38          1           0       -5.435243    1.425073    0.351177
     39          1           0       -5.483485    1.940407    2.035437
     40          1           0       -4.138817    2.427847    1.003146
     41          1           0       -4.602881   -2.758335    2.576688
     42          6           0       -4.070894   -1.844377    2.312278
     43          8           0       -1.918133   -2.778219    2.659677
     44          6           0       -2.640401   -1.831257    2.349243
     45          1           0       -1.058424   -0.577749    2.011015
     46          7           0       -2.067489   -0.625916    1.996845
     47          8           0       -2.123879    1.544528    1.331141
     48          6           0       -2.719611    0.523481    1.626481
     49          1           0       -5.822487   -0.696901    1.911014
     50          6           0       -4.734994   -0.738964    1.955027
     51          6           0       -4.837596    1.635182    1.225669
     52          7           0       -4.097529    0.431697    1.615099
     53          1           0       -5.456460    2.376199   -3.642471
     54          1           0       -4.149557    2.851633   -2.789203
     55          1           0       -5.639669    2.971515   -2.134004
     56          1           0       -2.488410   -3.432424   -0.104669
     57          1           0       -4.165718   -3.271997   -0.371116
     58          7           0       -3.251518   -2.868191   -0.420030
     59          6           0       -3.059651   -1.632112   -0.885297
     60          6           0       -3.742278    0.458311   -1.794064
     61          7           0       -2.503426    0.974778   -1.848196
     62          1           0       -0.576682    0.436752   -1.402338
     63          6           0       -1.611461    0.097043   -1.393344
     64          7           0       -1.801646   -1.141448   -0.926921
     65          1           0       -6.954705    0.363717   -2.145553
     66          6           0       -5.908111    0.144465   -1.932210
     67          7           0       -5.470221   -0.985325   -1.432716
     68          6           0       -4.098481   -0.799664   -1.340030
     69          6           0       -5.051252    2.424422   -2.729523
     70          7           0       -4.916443    1.063296   -2.175291
 ---------------------------------------------------------------------

 SCF Done:  E(RwB97XD) =  -2048.75277662     A.U. after   15 cycles

 The electronic state is 1-A.
 Alpha  occ. eigenvalues --  -19.25580 -19.21924 -19.20628 -14.52433 -14.52084
 Alpha  occ. eigenvalues --  -14.48802 -14.48764 -14.47745 -14.47570 -14.46881
 Alpha  occ. eigenvalues --  -14.46651 -14.45456 -14.44180 -14.44174 -14.42342
 Alpha  occ. eigenvalues --  -14.42007 -14.41219 -14.41091 -14.40988 -14.40414
 Alpha  occ. eigenvalues --  -10.45149 -10.41240 -10.40007 -10.39710 -10.38256
 Alpha  occ. eigenvalues --  -10.37962 -10.37295 -10.37099 -10.35662 -10.35512
 Alpha  occ. eigenvalues --  -10.35027 -10.34386 -10.33973 -10.33964 -10.33462
 Alpha  occ. eigenvalues --  -10.33379 -10.33200 -10.32575 -10.31281 -10.30874
 Alpha  occ. eigenvalues --  -10.30803 -10.28500 -10.28151  -1.19170  -1.15189
 Alpha  occ. eigenvalues --   -1.13201  -1.12938  -1.11297  -1.10613  -1.09132
 Alpha  occ. eigenvalues --   -1.09011  -1.08560  -1.05134  -1.04602  -1.02269
 Alpha  occ. eigenvalues --   -1.00918  -1.00516  -0.99726  -0.98546  -0.96982
 Alpha  occ. eigenvalues --   -0.96642  -0.96612  -0.92809  -0.90725  -0.87564
 Alpha  occ. eigenvalues --   -0.85886  -0.84138  -0.84000  -0.83439  -0.82522
 Alpha  occ. eigenvalues --   -0.82409  -0.78548  -0.76918  -0.74731  -0.74629
 Alpha  occ. eigenvalues --   -0.73630  -0.73123  -0.72952  -0.71114  -0.70261
 Alpha  occ. eigenvalues --   -0.67394  -0.66648  -0.66371  -0.66252  -0.64352
 Alpha  occ. eigenvalues --   -0.64086  -0.63691  -0.62791  -0.62618  -0.61785
 Alpha  occ. eigenvalues --   -0.60992  -0.60492  -0.60308  -0.59381  -0.59162
 Alpha  occ. eigenvalues --   -0.58709  -0.58364  -0.57023  -0.56658  -0.56207
 Alpha  occ. eigenvalues --   -0.55806  -0.55579  -0.55198  -0.54269  -0.54121
 Alpha  occ. eigenvalues --   -0.53706  -0.53591  -0.53461  -0.53335  -0.52945
 Alpha  occ. eigenvalues --   -0.52721  -0.52262  -0.51914  -0.50839  -0.50360
 Alpha  occ. eigenvalues --   -0.50162  -0.49878  -0.49330  -0.48966  -0.48910
 Alpha  occ. eigenvalues --   -0.48808  -0.48386  -0.48213  -0.47571  -0.47318
 Alpha  occ. eigenvalues --   -0.47013  -0.45982  -0.44937  -0.44830  -0.43193
 Alpha  occ. eigenvalues --   -0.41115  -0.40631  -0.39210  -0.37837  -0.37445
 Alpha  occ. eigenvalues --   -0.37288  -0.37233  -0.37160  -0.36137  -0.34514
 Alpha  occ. eigenvalues --   -0.34284  -0.34038  -0.33509  -0.33382  -0.33150
 Alpha  occ. eigenvalues --   -0.32668  -0.32359  -0.31968  -0.31875  -0.30959
 Alpha  occ. eigenvalues --   -0.30551  -0.29407  -0.25901  -0.25373
 Alpha virt. eigenvalues --    0.03445   0.04014   0.07237   0.07768   0.08494
 Alpha virt. eigenvalues --    0.09179   0.09729   0.10484   0.10924   0.12220
 Alpha virt. eigenvalues --    0.13080   0.13575   0.14270   0.14482   0.14963

 Mulliken charges:
               1
     1  N   -0.307623
     2  C    0.177757
     3  C    0.067231
     4  N   -0.251614
     5  C    0.135352
     6  H    0.025672
     7  N   -0.293102
     8  C    0.135519
     9  H    0.011281
    10  N   -0.287566
    11  C    0.230590
    12  C    0.090430
    13  N   -0.046353
    14  H    0.113096
    15  H    0.084454
    16  H    0.027350
    17  H    0.033660
    18  H    0.019453
    19  N   -0.302039
    20  C    0.257278
    21  C    0.183347
    22  N   -0.121673
    23  H    0.117903
    24  H    0.117868
    25  N   -0.309203
    26  C    0.243641
    27  N   -0.144048
    28  H    0.118005
    29  C    0.188159
    30  O   -0.323649
    31  C   -0.018311
    32  N   -0.218031
    33  C    0.119056
    34  H    0.018328
    35  H    0.025132
    36  H    0.030048
    37  H    0.022500
    38  H    0.051780
    39  H    0.060977
    40  H    0.074616
    41  H    0.021254
    42  C   -0.103966
    43  O   -0.272442
    44  C    0.159120
    45  H    0.130237
    46  N   -0.108630
    47  O   -0.343694
    48  C    0.334777
    49  H    0.045426
    50  C    0.171196
    51  C    0.043134
    52  N   -0.277460
    53  H    0.034874
    54  H    0.041195
    55  H    0.022600
    56  H    0.127155
    57  H    0.116494
    58  N   -0.050662
    59  C    0.080886
    60  C    0.221559
    61  N   -0.264902
    62  H    0.030398
    63  C    0.160793
    64  N   -0.299026
    65  H    0.035502
    66  C    0.114955
    67  N   -0.253795
    68  C    0.044860
    69  C    0.182516
    70  N   -0.301620
 Sum of Mulliken charges =  -0.00000

 Dipole moment (field-independent basis, Debye):
    X=             -6.2735    Y=              6.6112    Z=             -3.4686  Tot=              9.7517
 Quadrupole moment (field-independent basis, Debye-Ang):
   XX=           -148.1597   YY=           -223.7620   ZZ=           -258.6810
   XY=             -7.7248   XZ=              0.3797   YZ=              3.5674

 Normal termination of Gaussian 16 at Sat Jan 20 23:42:30 2018.
