 Gaussian 16, Revision A.03,
 Gaussian 16:  EM64L-G16RevA.03 25-Dec-2016

 ---------------------------------------
 #p wb97xd/cc-pvdz sp scf=(maxcycles=20)
 ---------------------------------------

 ------------------
 Base pair stacking
 ------------------
 Symbolic Z-matrix:
 Charge =  0 Multiplicity = 1

                         Standard orientation:
 ---------------------------------------------------------------------
 Center     Atomic      Atomic             Coordinates (Angstroms)
 Number     Number       Type             X           Y           Z
 ---------------------------------------------------------------------
      1          7           0        4.570655   -1.303313   -1.804796
      2          6           0        5.905025   -0.725198   -2.056248
      3          6           0        2.401734   -1.563559   -1.549071
      4          7           0        2.971495   -2.807722   -1.320690
      5          6           0        4.255380   -2.601141   -1.483898
      6          1           0        5.024575   -3.367153   -1.381321
      7          7           0        0.842857    0.188277   -1.801862
      8          6           0        1.887835    0.976554   -2.074340
      9          1           0        1.643061    2.016475   -2.286265
     10          7           0        3.183669    0.674513   -2.124106
     11          6           0        3.374987   -0.626217   -1.848592
     12          6           0        1.068441   -1.115416   -1.528802
     13          7           0        0.026622   -1.903877   -1.256570
     14          1           0        0.146775   -2.875268   -1.048749
     15          1           0       -0.908989   -1.550682   -1.251063
     16          1           0        6.332629   -1.194022   -2.829265
     17          1           0        5.813335    0.247587   -2.266966
     18          1           0        6.477119   -0.836002   -1.243584
     19          7           0        5.442032    1.351208    0.846556
     20          6           0        4.074345    1.461552    0.919412
     21          6           0        6.366973    2.437194    0.464680
     22          7           0        1.188895    3.366775    0.593824
     23          1           0        0.203855    3.238677    0.705781
     24          1           0        1.499030    4.274509    0.309993
     25          7           0        3.351459    2.571662    0.656490
     26          6           0        2.055774    2.366840    0.814172
     27          7           0        1.507900    1.167394    1.199766
     28          1           0        0.506071    1.102243    1.294963
     29          6           0        2.232540    0.012087    1.475502
     30          8           0        1.640556   -1.019477    1.816352
     31          6           0        3.626028    0.216599    1.310442
     32          7           0        4.690823   -0.657731    1.479668
     33          6           0        5.745025    0.057378    1.194201
     34          1           0        6.771145   -0.310881    1.221346
     35          1           0        6.881657    2.168306   -0.348714
     36          1           0        5.842826    3.264648    0.267582
     37          1           0        7.001182    2.616700    1.215924
     38          1           0       -4.565390    1.252374    0.962704
     39          1           0       -4.466092    1.461657    2.709412
     40          1           0       -3.187002    2.093770    1.672250
     41          1           0       -3.720352   -3.277371    2.346130
     42          6           0       -3.176784   -2.343373    2.203312
     43          8           0       -1.039648   -3.372810    2.205168
     44          6           0       -1.748137   -2.369588    2.125237
     45          1           0       -0.151479   -1.112317    1.883829
     46          7           0       -1.159765   -1.134212    1.943778
     47          8           0       -1.186807    1.120626    1.675145
     48          6           0       -1.795470    0.077202    1.834759
     49          1           0       -4.910445   -1.103322    2.153285
     50          6           0       -3.825049   -1.177275    2.100446
     51          6           0       -3.895488    1.290322    1.808788
     52          7           0       -3.172692    0.020299    1.919875
     53          1           0       -6.332100    3.522982   -2.088210
     54          1           0       -4.957896    3.654960   -1.218587
     55          1           0       -6.399854    3.572059   -0.458358
     56          1           0       -3.400339   -3.197374   -0.944923
     57          1           0       -5.082514   -2.924711   -1.022521
     58          7           0       -4.156962   -2.545414   -0.996009
     59          6           0       -3.942342   -1.228560   -1.027446
     60          6           0       -4.591106    1.058692   -1.124096
     61          7           0       -3.337417    1.539650   -1.087179
     62          1           0       -1.411331    0.846303   -0.986671
     63          6           0       -2.456886    0.543097   -1.020452
     64          7           0       -2.669864   -0.776464   -0.988875
     65          1           0       -7.819970    1.149045   -1.259808
     66          6           0       -6.772446    0.850871   -1.207558
     67          7           0       -6.352538   -0.389413   -1.152338
     68          6           0       -4.971212   -0.271881   -1.099057
     69          6           0       -5.871300    3.249762   -1.243810
     70          7           0       -5.759956    1.779001   -1.194246
 ---------------------------------------------------------------------

 SCF Done:  E(RwB97XD) =  -2048.74541636     A.U. after   15 cycles

 The electronic state is 1-A.
 Alpha  occ. eigenvalues --  -19.25187 -19.21416 -19.20611 -14.52905 -14.51640
 Alpha  occ. eigenvalues --  -14.49243 -14.48562 -14.48537 -14.47181 -14.46745
 Alpha  occ. eigenvalues --  -14.46657 -14.45757 -14.44775 -14.44741 -14.42887
 Alpha  occ. eigenvalues --  -14.41941 -14.41486 -14.41252 -14.41089 -14.40769
 Alpha  occ. eigenvalues --  -10.44771 -10.41179 -10.40444 -10.39507 -10.38314
 Alpha  occ. eigenvalues --  -10.38275 -10.37630 -10.37063 -10.36300 -10.35849
 Alpha  occ. eigenvalues --  -10.34582 -10.34211 -10.33882 -10.33877 -10.33873
 Alpha  occ. eigenvalues --  -10.33434 -10.33401 -10.33169 -10.31381 -10.30922
 Alpha  occ. eigenvalues --  -10.30417 -10.28628 -10.28362  -1.18775  -1.15684
 Alpha  occ. eigenvalues --   -1.13264  -1.12422  -1.11200  -1.10896  -1.09820
 Alpha  occ. eigenvalues --   -1.08620  -1.08481  -1.05426  -1.05297  -1.01791
 Alpha  occ. eigenvalues --   -1.01342  -1.00827  -0.99720  -0.98637  -0.97405
 Alpha  occ. eigenvalues --   -0.96919  -0.96848  -0.93119  -0.90319  -0.88116
 Alpha  occ. eigenvalues --   -0.86268  -0.84467  -0.83937  -0.82918  -0.82701
 Alpha  occ. eigenvalues --   -0.82367  -0.78195  -0.77450  -0.75319  -0.74842
 Alpha  occ. eigenvalues --   -0.73660  -0.73075  -0.72672  -0.71279  -0.70830
 Alpha  occ. eigenvalues --   -0.67485  -0.67209  -0.66488  -0.65903  -0.64646
 Alpha  occ. eigenvalues --   -0.64454  -0.63435  -0.62954  -0.62648  -0.61890
 Alpha  occ. eigenvalues --   -0.61239  -0.60873  -0.60678  -0.59846  -0.58952
 Alpha  occ. eigenvalues --   -0.58813  -0.58391  -0.57637  -0.56768  -0.55925
 Alpha  occ. eigenvalues --   -0.55819  -0.55628  -0.55594  -0.54628  -0.54158
 Alpha  occ. eigenvalues --   -0.53975  -0.53967  -0.53350  -0.53174  -0.53018
 Alpha  occ. eigenvalues --   -0.52384  -0.51802  -0.51579  -0.50632  -0.50538
 Alpha  occ. eigenvalues --   -0.50291  -0.50168  -0.49535  -0.49201  -0.49014
 Alpha  occ. eigenvalues --   -0.48733  -0.48188  -0.48143  -0.47734  -0.47098
 Alpha  occ. eigenvalues --   -0.47082  -0.45798  -0.45614  -0.45040  -0.42436
 Alpha  occ. eigenvalues --   -0.41415  -0.41091  -0.38914  -0.38220  -0.38000
 Alpha  occ. eigenvalues --   -0.37692  -0.37289  -0.36991  -0.35585  -0.35100
 Alpha  occ. eigenvalues --   -0.34704  -0.34188  -0.33644  -0.33521  -0.33027
 Alpha  occ. eigenvalues --   -0.32730  -0.32521  -0.31944  -0.31116  -0.30876
 Alpha  occ. eigenvalues --   -0.30671  -0.30534  -0.26299  -0.25437
 Alpha virt. eigenvalues --    0.02893   0.04349   0.06380   0.07518   0.08743
 Alpha virt. eigenvalues --    0.09084   0.09723   0.10099   0.10793   0.12407
 Alpha virt. eigenvalues --    0.13023   0.13788   0.14088   0.14471   0.14594

 Mulliken charges:
               1
     1  N   -0.300757
     2  C    0.183924
     3  C    0.060768
     4  N   -0.254841
     5  C    0.150736
     6  H    0.027702
     7  N   -0.287674
     8  C    0.124294
     9  H    0.007966
    10  N   -0.274469
    11  C    0.234556
    12  C    0.078140
    13  N   -0.058784
    14  H    0.115051
    15  H    0.085338
    16  H    0.025683
    17  H    0.030766
    18  H    0.013570
    19  N   -0.304948
    20  C    0.262380
    21  C    0.184381
    22  N   -0.115463
    23  H    0.120902
    24  H    0.118386
    25  N   -0.296886
    26  C    0.216536
    27  N   -0.124679
    28  H    0.119916
    29  C    0.180207
    30  O   -0.319811
    31  C   -0.015181
    32  N   -0.217201
    33  C    0.096706
    34  H    0.027498
    35  H    0.018758
    36  H    0.033317
    37  H    0.025608
    38  H    0.052537
    39  H    0.051193
    40  H    0.076801
    41  H    0.020595
    42  C   -0.102876
    43  O   -0.270071
    44  C    0.171597
    45  H    0.131260
    46  N   -0.121331
    47  O   -0.346855
    48  C    0.334053
    49  H    0.045946
    50  C    0.158340
    51  C    0.056277
    52  N   -0.274825
    53  H    0.036172
    54  H    0.041574
    55  H    0.029769
    56  H    0.123248
    57  H    0.118681
    58  N   -0.055397
    59  C    0.094544
    60  C    0.189899
    61  N   -0.254532
    62  H    0.026541
    63  C    0.170479
    64  N   -0.308451
    65  H    0.039320
    66  C    0.134959
    67  N   -0.253164
    68  C    0.032976
    69  C    0.179300
    70  N   -0.300953
 Sum of Mulliken charges =  -0.00000

 Dipole moment (field-independent basis, Debye):
    X=             -6.4378    Y=              7.4799    Z=             -2.1198  Tot=             10.0939
 Quadrupole moment (field-independent basis, Debye-Ang):
   XX=           -151.0562   YY=           -228.1811   ZZ=           -255.4308
   XY=             -1.7067   XZ=            -12.3219   YZ=             13.1964

 Normal termination of Gaussian 16 at Sun Jan 21 01:42:30 2018.
