 Gaussian 16, Revision A.03,
 Gaussian 16:  EM64L-G16RevA.03 25-Dec-2016

 ---------------------------------------
 #p wb97xd/cc-pvdz sp scf=(maxcycles=20)
 ---------------------------------------

 ------------------
 Base pair stacking
 ------------------
 Symbolic Z-matrix:
 Charge =  0 Multiplicity = 1

                         Standard orientation:
 ---------------------------------------------------------------------
 Center     Atomic      Atomic             Coordinates (Angstroms)
 Number     Number       Type             X           Y           Z
 ---------------------------------------------------------------------
      1          7           0        5.477307   -1.313897   -1.231017
      2          6           0        6.816287   -0.706068   -1.356247
      3          6           0        3.300380   -1.624889   -1.190980
      4          7           0        3.873254   -2.850970   -0.885602
      5          6           0        5.161843   -2.614539   -0.921943
      6          1           0        5.934526   -3.359450   -0.729566
      7          7           0        1.734255    0.083466   -1.628845
      8          6           0        2.782571    0.893787   -1.807674
      9          1           0        2.536080    1.924121   -2.060510
     10          7           0        4.083549    0.623734   -1.721478
     11          6           0        4.276587   -0.667745   -1.406433
     12          6           0        1.961688   -1.210142   -1.312722
     13          7           0        0.916535   -2.020584   -1.133814
     14          1           0        1.037891   -2.985600   -0.898775
     15          1           0       -0.022887   -1.690955   -1.228571
     16          1           0        7.330852   -1.174937   -2.074275
     17          1           0        6.723495    0.261018   -1.591336
     18          1           0        7.305647   -0.790903   -0.488305
     19          7           0        4.560546    1.568879    1.164187
     20          6           0        3.190166    1.644589    1.097925
     21          6           0        5.495110    2.639038    0.761654
     22          7           0        0.310300    3.420217    0.313554
     23          1           0       -0.678075    3.274197    0.345841
     24          1           0        0.627316    4.304266   -0.030938
     25          7           0        2.472930    2.700834    0.657521
     26          6           0        1.172613    2.473664    0.713991
     27          7           0        0.615295    1.302391    1.166791
     28          1           0       -0.389483    1.216809    1.174534
     29          6           0        1.333977    0.202517    1.624657
     30          8           0        0.733571   -0.807545    2.011976
     31          6           0        2.732336    0.431600    1.569998
     32          7           0        3.793926   -0.389123    1.925459
     33          6           0        4.855581    0.325631    1.668124
     34          1           0        5.881800   -0.006990    1.827851
     35          1           0        6.090615    2.306472    0.031190
     36          1           0        4.975216    3.426684    0.433635
     37          1           0        6.050776    2.911222    1.546491
     38          1           0       -5.407998    1.180182    0.358510
     39          1           0       -5.480433    1.564558    2.076543
     40          1           0       -4.121405    2.129000    1.104022
     41          1           0       -4.605639   -3.162477    2.267465
     42          6           0       -4.070319   -2.231265    2.081697
     43          8           0       -1.922337   -3.190499    2.386873
     44          6           0       -2.640512   -2.221981    2.139900
     45          1           0       -1.054414   -0.947256    1.921581
     46          7           0       -2.063148   -0.993512    1.889398
     47          8           0       -2.110969    1.221728    1.391771
     48          6           0       -2.710411    0.181395    1.599251
     49          1           0       -5.816511   -1.055162    1.744940
     50          6           0       -4.729735   -1.101210    1.801063
     51          6           0       -4.822948    1.322046    1.254984
     52          7           0       -4.087988    0.091685    1.561240
     53          1           0       -5.451455    3.232440   -2.692752
     54          1           0       -4.175805    3.411258   -1.691321
     55          1           0       -5.684949    3.302949   -1.079082
     56          1           0       -2.492934   -3.395205   -1.147770
     57          1           0       -4.164577   -3.166030   -1.399132
     58          7           0       -3.255652   -2.763262   -1.285758
     59          6           0       -3.070041   -1.442001   -1.317340
     60          6           0       -3.759395    0.826612   -1.517048
     61          7           0       -2.527557    1.339400   -1.361940
     62          1           0       -0.605742    0.696160   -1.056186
     63          6           0       -1.635074    0.366326   -1.190158
     64          7           0       -1.818998   -0.957586   -1.158211
     65          1           0       -6.959175    0.833882   -1.979116
     66          6           0       -5.915582    0.562892   -1.816549
     67          7           0       -5.474319   -0.665540   -1.698597
     68          6           0       -4.108622   -0.512596   -1.508276
     69          6           0       -5.072160    2.982916   -1.801750
     70          7           0       -4.931791    1.516270   -1.716701
 ---------------------------------------------------------------------

 SCF Done:  E(RwB97XD) =  -2048.74433713     A.U. after   15 cycles

 The electronic state is 1-A.
 Alpha  occ. eigenvalues --  -19.25271 -19.21568 -19.20514 -14.52590 -14.51924
 Alpha  occ. eigenvalues --  -14.48997 -14.48543 -14.48148 -14.47349 -14.46692
 Alpha  occ. eigenvalues --  -14.46510 -14.45785 -14.44495 -14.44389 -14.42750
 Alpha  occ. eigenvalues --  -14.41869 -14.41504 -14.41281 -14.40848 -14.40597
 Alpha  occ. eigenvalues --  -10.44880 -10.41095 -10.40043 -10.39678 -10.38193
 Alpha  occ. eigenvalues --  -10.38122 -10.37331 -10.37242 -10.35953 -10.35806
 Alpha  occ. eigenvalues --  -10.34570 -10.34294 -10.34233 -10.34180 -10.33620
 Alpha  occ. eigenvalues --  -10.33320 -10.33317 -10.32839 -10.31556 -10.30646
 Alpha  occ. eigenvalues --  -10.30601 -10.28745 -10.27999  -1.19018  -1.15545
 Alpha  occ. eigenvalues --   -1.13065  -1.12591  -1.11548  -1.10428  -1.09425
 Alpha  occ. eigenvalues --   -1.08854  -1.08423  -1.05402  -1.04893  -1.02027
 Alpha  occ. eigenvalues --   -1.01243  -1.00830  -0.99575  -0.98408  -0.97271
 Alpha  occ. eigenvalues --   -0.96939  -0.96425  -0.93087  -0.90573  -0.87877
 Alpha  occ. eigenvalues --   -0.86214  -0.84256  -0.83965  -0.83289  -0.82703
 Alpha  occ. eigenvalues --   -0.82279  -0.78392  -0.77232  -0.75050  -0.74480
 Alpha  occ. eigenvalues --   -0.73482  -0.73220  -0.72922  -0.71363  -0.70580
 Alpha  occ. eigenvalues --   -0.67247  -0.66945  -0.66658  -0.66116  -0.64433
 Alpha  occ. eigenvalues --   -0.64200  -0.63604  -0.63082  -0.62516  -0.61775
 Alpha  occ. eigenvalues --   -0.61631  -0.60800  -0.60612  -0.59688  -0.59094
 Alpha  occ. eigenvalues --   -0.58425  -0.58216  -0.57411  -0.56932  -0.56101
 Alpha  occ. eigenvalues --   -0.55918  -0.55654  -0.55468  -0.54044  -0.53983
 Alpha  occ. eigenvalues --   -0.53789  -0.53750  -0.53475  -0.53344  -0.52998
 Alpha  occ. eigenvalues --   -0.52765  -0.52186  -0.52122  -0.50982  -0.50509
 Alpha  occ. eigenvalues --   -0.50178  -0.49916  -0.49232  -0.49126  -0.48753
 Alpha  occ. eigenvalues --   -0.48559  -0.48263  -0.48142  -0.47448  -0.47141
 Alpha  occ. eigenvalues --   -0.47089  -0.45953  -0.45078  -0.44906  -0.43005
 Alpha  occ. eigenvalues --   -0.41224  -0.40965  -0.39037  -0.37934  -0.37768
 Alpha  occ. eigenvalues --   -0.37521  -0.37165  -0.37028  -0.36081  -0.34863
 Alpha  occ. eigenvalues --   -0.34464  -0.34127  -0.33818  -0.33445  -0.32871
 Alpha  occ. eigenvalues --   -0.32497  -0.32157  -0.31750  -0.31684  -0.31142
 Alpha  occ. eigenvalues --   -0.30789  -0.29519  -0.25997  -0.25381
 Alpha virt. eigenvalues --    0.03464   0.03748   0.06974   0.07596   0.08768
 Alpha virt. eigenvalues --    0.09144   0.09805   0.10201   0.10734   0.12491
 Alpha virt. eigenvalues --    0.13055   0.13783   0.14022   0.14273   0.14578

 Mulliken charges:
               1
     1  N   -0.305979
     2  C    0.173500
     3  C    0.076891
     4  N   -0.255976
     5  C    0.137189
     6  H    0.026659
     7  N   -0.287061
     8  C    0.134692
     9  H    0.013305
    10  N   -0.282722
    11  C    0.224545
    12  C    0.083226
    13  N   -0.048430
    14  H    0.110567
    15  H    0.083881
    16  H    0.028722
    17  H    0.035897
    18  H    0.020947
    19  N   -0.285266
    20  C    0.236497
    21  C    0.186135
    22  N   -0.114877
    23  H    0.117749
    24  H    0.116533
    25  N   -0.298017
    26  C    0.229706
    27  N   -0.132759
    28  H    0.114206
    29  C    0.178451
    30  O   -0.322278
    31  C   -0.009598
    32  N   -0.216550
    33  C    0.110315
    34  H    0.016398
    35  H    0.017725
    36  H    0.029553
    37  H    0.021280
    38  H    0.047834
    39  H    0.057466
    40  H    0.072739
    41  H    0.024353
    42  C   -0.104342
    43  O   -0.268817
    44  C    0.167922
    45  H    0.129964
    46  N   -0.113306
    47  O   -0.336233
    48  C    0.330645
    49  H    0.045407
    50  C    0.167425
    51  C    0.053469
    52  N   -0.276560
    53  H    0.037076
    54  H    0.040639
    55  H    0.022962
    56  H    0.124802
    57  H    0.118306
    58  N   -0.058329
    59  C    0.091667
    60  C    0.184561
    61  N   -0.252164
    62  H    0.026215
    63  C    0.157123
    64  N   -0.297311
    65  H    0.035775
    66  C    0.109463
    67  N   -0.247331
    68  C    0.055479
    69  C    0.181210
    70  N   -0.293165
 Sum of Mulliken charges =  -0.00000

 Dipole moment (field-independent basis, Debye):
    X=             -6.1667    Y=              6.7489    Z=             -3.5453  Tot=              9.8054
 Quadrupole moment (field-independent basis, Debye-Ang):
   XX=           -148.7395   YY=           -226.4074   ZZ=           -259.3437
   XY=             -7.7050   XZ=             -1.7768   YZ=             11.1338

 Normal termination of Gaussian 16 at Sat Jan 20 10:06:53 2018.
