 Gaussian 16, Revision A.03,
 Gaussian 16:  EM64L-G16RevA.03 25-Dec-2016

 ---------------------------------------
 #p wb97xd/cc-pvdz sp scf=(maxcycles=20)
 ---------------------------------------

 ------------------
 Base pair stacking
 ------------------
 Symbolic Z-matrix:
 Charge =  0 Multiplicity = 1

                         Standard orientation:
 ---------------------------------------------------------------------
 Center     Atomic      Atomic             Coordinates (Angstroms)
 Number     Number       Type             X           Y           Z
 ---------------------------------------------------------------------
      1          7           0        4.879722   -1.267520   -1.627714
      2          6           0        6.219856   -0.672061   -1.793466
      3          6           0        2.703661   -1.549079   -1.476684
      4          7           0        3.271011   -2.800920   -1.287673
      5          6           0        4.559301   -2.581189   -1.386227
      6          1           0        5.328223   -3.348325   -1.290253
      7          7           0        1.145980    0.207060   -1.705943
      8          6           0        2.196554    1.012304   -1.894203
      9          1           0        1.954475    2.060646   -2.063464
     10          7           0        3.495169    0.718378   -1.904731
     11          6           0        3.682790   -0.593872   -1.687420
     12          6           0        1.367955   -1.107892   -1.489796
     13          7           0        0.320541   -1.913304   -1.301648
     14          1           0        0.437870   -2.893490   -1.138259
     15          1           0       -0.616631   -1.564586   -1.317597
     16          1           0        6.682189   -1.099392   -2.570523
     17          1           0        6.131070    0.309785   -1.958486
     18          1           0        6.758228   -0.821605   -0.964129
     19          7           0        5.152341    1.380626    0.970767
     20          6           0        3.782074    1.480325    0.992583
     21          6           0        6.080881    2.461660    0.583646
     22          7           0        0.893856    3.345621    0.502021
     23          1           0       -0.093372    3.212023    0.584323
     24          1           0        1.206070    4.245998    0.197805
     25          7           0        3.059497    2.573813    0.666655
     26          6           0        1.760873    2.362142    0.786578
     27          7           0        1.209974    1.171446    1.194332
     28          1           0        0.206019    1.100033    1.257142
     29          6           0        1.934218    0.033257    1.534684
     30          8           0        1.339397   -0.991622    1.890424
     31          6           0        3.330847    0.245287    1.410772
     32          7           0        4.396390   -0.612509    1.646754
     33          6           0        5.453861    0.102428    1.373209
     34          1           0        6.481462   -0.254853    1.448436
     35          1           0        6.625770    2.169969   -0.201734
     36          1           0        5.557003    3.276830    0.340088
     37          1           0        6.687062    2.672880    1.349630
     38          1           0       -4.851902    1.190214    0.745304
     39          1           0       -4.815156    1.460219    2.486112
     40          1           0       -3.506101    2.068583    1.472390
     41          1           0       -4.017632   -3.281137    2.312944
     42          6           0       -3.477253   -2.347427    2.156719
     43          8           0       -1.332943   -3.355733    2.267841
     44          6           0       -2.046578   -2.362660    2.128882
     45          1           0       -0.453067   -1.099210    1.899285
     46          7           0       -1.462613   -1.128674    1.925163
     47          8           0       -1.499150    1.115264    1.577889
     48          6           0       -2.104251    0.072171    1.752445
     49          1           0       -5.218436   -1.126445    2.004092
     50          6           0       -4.131276   -1.191791    1.991278
     51          6           0       -4.212169    1.263564    1.612152
     52          7           0       -3.483071    0.005059    1.791959
     53          1           0       -6.031098    3.523192   -2.124473
     54          1           0       -4.695185    3.616448   -1.192408
     55          1           0       -6.167057    3.489341   -0.498502
     56          1           0       -3.108441   -3.234656   -1.199759
     57          1           0       -4.787560   -2.965161   -1.334019
     58          7           0       -3.866257   -2.583989   -1.249583
     59          6           0       -3.658580   -1.266373   -1.205495
     60          6           0       -4.316747    1.020210   -1.213739
     61          7           0       -3.068664    1.503704   -1.100026
     62          1           0       -1.144241    0.813881   -0.953897
     63          6           0       -2.185599    0.508581   -1.046780
     64          7           0       -2.391611   -0.811726   -1.090793
     65          1           0       -7.537645    1.104375   -1.480091
     66          6           0       -6.491401    0.808142   -1.399037
     67          7           0       -6.066574   -0.431657   -1.388914
     68          6           0       -4.689408   -0.311436   -1.271845
     69          6           0       -5.604238    3.209388   -1.276341
     70          7           0       -5.486057    1.738464   -1.296438
 ---------------------------------------------------------------------

 SCF Done:  E(RwB97XD) =  -2048.73907341     A.U. after   15 cycles

 The electronic state is 1-A.
 Alpha  occ. eigenvalues --  -19.25168 -19.21459 -19.20551 -14.52849 -14.51738
 Alpha  occ. eigenvalues --  -14.49036 -14.48726 -14.48470 -14.47217 -14.46597
 Alpha  occ. eigenvalues --  -14.46590 -14.45817 -14.44716 -14.44620 -14.42879
 Alpha  occ. eigenvalues --  -14.41824 -14.41263 -14.41253 -14.41231 -14.40777
 Alpha  occ. eigenvalues --  -10.44805 -10.41050 -10.40380 -10.39549 -10.38332
 Alpha  occ. eigenvalues --  -10.38170 -10.37576 -10.37117 -10.36291 -10.35866
 Alpha  occ. eigenvalues --  -10.34404 -10.34299 -10.34002 -10.33916 -10.33720
 Alpha  occ. eigenvalues --  -10.33497 -10.33381 -10.33040 -10.31245 -10.31180
 Alpha  occ. eigenvalues --  -10.30504 -10.28668 -10.28204  -1.18865  -1.15746
 Alpha  occ. eigenvalues --   -1.13156  -1.12467  -1.11329  -1.10721  -1.09735
 Alpha  occ. eigenvalues --   -1.08660  -1.08468  -1.05461  -1.05220  -1.01853
 Alpha  occ. eigenvalues --   -1.01376  -1.00854  -0.99635  -0.98498  -0.97348
 Alpha  occ. eigenvalues --   -0.96986  -0.96742  -0.93156  -0.90395  -0.88122
 Alpha  occ. eigenvalues --   -0.86305  -0.84336  -0.84030  -0.82938  -0.82669
 Alpha  occ. eigenvalues --   -0.82530  -0.78244  -0.77454  -0.75282  -0.74699
 Alpha  occ. eigenvalues --   -0.73567  -0.73153  -0.72741  -0.71341  -0.70800
 Alpha  occ. eigenvalues --   -0.67382  -0.67171  -0.66575  -0.65993  -0.64645
 Alpha  occ. eigenvalues --   -0.64329  -0.63556  -0.63037  -0.62559  -0.61810
 Alpha  occ. eigenvalues --   -0.61651  -0.60892  -0.60733  -0.59868  -0.58994
 Alpha  occ. eigenvalues --   -0.58693  -0.58333  -0.57680  -0.56862  -0.56010
 Alpha  occ. eigenvalues --   -0.55854  -0.55652  -0.55578  -0.54474  -0.54114
 Alpha  occ. eigenvalues --   -0.54059  -0.53942  -0.53361  -0.53162  -0.52941
 Alpha  occ. eigenvalues --   -0.52595  -0.51963  -0.51732  -0.50744  -0.50466
 Alpha  occ. eigenvalues --   -0.50228  -0.50114  -0.49330  -0.49192  -0.48936
 Alpha  occ. eigenvalues --   -0.48621  -0.48202  -0.48060  -0.48008  -0.47173
 Alpha  occ. eigenvalues --   -0.47072  -0.45826  -0.45488  -0.44906  -0.42397
 Alpha  occ. eigenvalues --   -0.41349  -0.41094  -0.38909  -0.38120  -0.37968
 Alpha  occ. eigenvalues --   -0.37607  -0.37185  -0.36963  -0.35781  -0.35073
 Alpha  occ. eigenvalues --   -0.34625  -0.34296  -0.33719  -0.33359  -0.32916
 Alpha  occ. eigenvalues --   -0.32696  -0.32519  -0.31864  -0.31311  -0.30926
 Alpha  occ. eigenvalues --   -0.30651  -0.30293  -0.26257  -0.25310
 Alpha virt. eigenvalues --    0.03343   0.03817   0.06695   0.07399   0.08662
 Alpha virt. eigenvalues --    0.09130   0.09779   0.10056   0.10922   0.12630
 Alpha virt. eigenvalues --    0.12871   0.13774   0.14141   0.14379   0.14493

 Mulliken charges:
               1
     1  N   -0.301617
     2  C    0.179615
     3  C    0.067939
     4  N   -0.256454
     5  C    0.146304
     6  H    0.026995
     7  N   -0.284234
     8  C    0.128509
     9  H    0.009540
    10  N   -0.272744
    11  C    0.232010
    12  C    0.073724
    13  N   -0.053246
    14  H    0.112808
    15  H    0.083930
    16  H    0.027821
    17  H    0.032097
    18  H    0.013375
    19  N   -0.298874
    20  C    0.258176
    21  C    0.186677
    22  N   -0.113343
    23  H    0.121254
    24  H    0.117748
    25  N   -0.288255
    26  C    0.201682
    27  N   -0.116142
    28  H    0.117479
    29  C    0.170724
    30  O   -0.320673
    31  C   -0.009422
    32  N   -0.214757
    33  C    0.096910
    34  H    0.025638
    35  H    0.015512
    36  H    0.032968
    37  H    0.024220
    38  H    0.053615
    39  H    0.050078
    40  H    0.077663
    41  H    0.022986
    42  C   -0.098892
    43  O   -0.269007
    44  C    0.171338
    45  H    0.129740
    46  N   -0.116534
    47  O   -0.344151
    48  C    0.329969
    49  H    0.045321
    50  C    0.157682
    51  C    0.057711
    52  N   -0.275491
    53  H    0.036988
    54  H    0.041661
    55  H    0.027860
    56  H    0.123241
    57  H    0.118732
    58  N   -0.057527
    59  C    0.099259
    60  C    0.182037
    61  N   -0.254936
    62  H    0.015833
    63  C    0.178997
    64  N   -0.307937
    65  H    0.036880
    66  C    0.125199
    67  N   -0.248870
    68  C    0.034542
    69  C    0.179748
    70  N   -0.297630
 Sum of Mulliken charges =  -0.00000

 Dipole moment (field-independent basis, Debye):
    X=             -6.3139    Y=              7.2538    Z=             -2.7127  Tot=              9.9920
 Quadrupole moment (field-independent basis, Debye-Ang):
   XX=           -150.6879   YY=           -228.1852   ZZ=           -257.0217
   XY=             -3.4872   XZ=             -9.2835   YZ=             13.5975

 Normal termination of Gaussian 16 at Sat Jan 20 11:43:19 2018.
