 Gaussian 16, Revision A.03,
 Gaussian 16:  EM64L-G16RevA.03 25-Dec-2016

 ---------------------------------------
 #p wb97xd/cc-pvdz sp scf=(maxcycles=20)
 ---------------------------------------

 ------------------
 Base pair stacking
 ------------------
 Symbolic Z-matrix:
 Charge =  0 Multiplicity = 1

                         Standard orientation:
 ---------------------------------------------------------------------
 Center     Atomic      Atomic             Coordinates (Angstroms)
 Number     Number       Type             X           Y           Z
 ---------------------------------------------------------------------
      1          7           0       -7.175223   -1.005436    0.119296
      2          6           0       -8.497536   -0.369006    0.275664
      3          6           0       -5.022641   -1.444043    0.225664
      4          7           0       -5.594440   -2.479884   -0.498778
      5          6           0       -6.868398   -2.174178   -0.533871
      6          1           0       -7.635934   -2.771338   -1.027052
      7          7           0       -3.466145   -0.058941    1.330981
      8          6           0       -4.500046    0.733723    1.631496
      9          1           0       -4.251966    1.621970    2.210927
     10          7           0       -5.788344    0.594547    1.325168
     11          6           0       -5.984595   -0.527620    0.613363
     12          6           0       -3.696447   -1.180376    0.613747
     13          7           0       -2.665669   -1.972896    0.312778
     14          1           0       -2.789671   -2.813123   -0.216235
     15          1           0       -1.734859   -1.753896    0.605662
     16          1           0       -9.114337   -0.992516    0.756266
     17          1           0       -8.401779    0.475214    0.802215
     18          1           0       -8.876286   -0.156831   -0.625180
     19          7           0       -2.651547    2.166145   -1.511186
     20          6           0       -1.299169    2.119578   -1.272495
     21          6           0       -3.523178    3.331352   -1.259710
     22          7           0        1.615852    3.655031   -0.173974
     23          1           0        2.582183    3.418733   -0.075908
     24          1           0        1.343712    4.576735    0.103730
     25          7           0       -0.545458    3.122398   -0.772168
     26          6           0        0.724271    2.776087   -0.656098
     27          7           0        1.219990    1.542602   -1.002914
     28          1           0        2.205208    1.365898   -0.880015
     29          6           0        0.462891    0.495843   -1.519579
     30          8           0        1.008309   -0.578639   -1.800237
     31          6           0       -0.903267    0.852870   -1.650020
     32          7           0       -1.985318    0.118966   -2.116322
     33          6           0       -2.998110    0.936481   -2.015639
     34          1           0       -4.023298    0.692563   -2.296276
     35          1           0       -4.233976    3.082396   -0.602753
     36          1           0       -2.975851    4.080492   -0.888911
     37          1           0       -3.948297    3.622670   -2.115996
     38          1           0        7.056504    0.904922    0.570875
     39          1           0        7.378735    1.215188   -1.133398
     40          1           0        5.968814    1.937462   -0.357633
     41          1           0        6.089901   -3.416706   -1.309496
     42          6           0        5.626420   -2.434312   -1.218278
     43          8           0        3.451976   -3.205490   -1.769795
     44          6           0        4.222416   -2.297469   -1.458821
     45          1           0        2.749668   -0.876570   -1.478594
     46          7           0        3.737547   -1.012968   -1.316649
     47          8           0        3.932983    1.206167   -0.875690
     48          6           0        4.452144    0.108533   -0.977355
     49          1           0        7.420684   -1.409628   -0.692483
     50          6           0        6.349958   -1.358916   -0.885692
     51          6           0        6.603928    1.064960   -0.396400
     52          7           0        5.799449   -0.104372   -0.761383
     53          1           0        3.632619    2.112842    4.082939
     54          1           0        2.500230    2.671522    3.049648
     55          1           0        4.069843    2.643497    2.602852
     56          1           0        0.665393   -3.527668    0.282190
     57          1           0        2.298959   -3.502845    0.773056
     58          7           0        1.426004   -3.021170    0.688475
     59          6           0        1.283589   -1.759452    1.099536
     60          6           0        2.020155    0.292131    2.053571
     61          7           0        0.836114    0.913870    1.927505
     62          1           0       -1.052912    0.528763    1.231895
     63          6           0       -0.060656    0.101855    1.371339
     64          7           0        0.080032   -1.162147    0.958939
     65          1           0        5.134563   -0.065419    2.844026
     66          6           0        4.111041   -0.201020    2.493362
     67          7           0        3.646034   -1.304192    1.960023
     68          6           0        2.321296   -1.005069    1.676596
     69          6           0        3.360226    2.167271    3.122293
     70          7           0        3.181160    0.806163    2.580692
 ---------------------------------------------------------------------

 SCF Done:  E(RwB97XD) =  -2048.74954207     A.U. after   15 cycles

 The electronic state is 1-A.
 Alpha  occ. eigenvalues --  -19.26081 -19.22173 -19.20731 -14.52550 -14.51059
 Alpha  occ. eigenvalues --  -14.49586 -14.48648 -14.47895 -14.46959 -14.46930
 Alpha  occ. eigenvalues --  -14.45810 -14.44053 -14.42628 -14.42475 -14.42382
 Alpha  occ. eigenvalues --  -14.42265 -14.42111 -14.41712 -14.40868 -14.40798
 Alpha  occ. eigenvalues --  -10.45633 -10.41323 -10.40234 -10.38350 -10.37963
 Alpha  occ. eigenvalues --  -10.37731 -10.36654 -10.36092 -10.35750 -10.35561
 Alpha  occ. eigenvalues --  -10.34902 -10.34377 -10.34209 -10.34069 -10.33833
 Alpha  occ. eigenvalues --  -10.33220 -10.33062 -10.31629 -10.31035 -10.30960
 Alpha  occ. eigenvalues --  -10.30551 -10.29379 -10.28168  -1.19597  -1.13726
 Alpha  occ. eigenvalues --   -1.13297  -1.13170  -1.12188  -1.10580  -1.09446
 Alpha  occ. eigenvalues --   -1.08694  -1.07297  -1.05719  -1.02851  -1.02569
 Alpha  occ. eigenvalues --   -1.01099  -0.99939  -0.99461  -0.98581  -0.97712
 Alpha  occ. eigenvalues --   -0.96504  -0.94937  -0.93328  -0.91048  -0.86157
 Alpha  occ. eigenvalues --   -0.84735  -0.84623  -0.84091  -0.83933  -0.83055
 Alpha  occ. eigenvalues --   -0.82352  -0.78926  -0.75369  -0.74626  -0.73773
 Alpha  occ. eigenvalues --   -0.73616  -0.73433  -0.73078  -0.71811  -0.68728
 Alpha  occ. eigenvalues --   -0.67476  -0.66999  -0.66626  -0.65038  -0.64521
 Alpha  occ. eigenvalues --   -0.63786  -0.63414  -0.62741  -0.62531  -0.61839
 Alpha  occ. eigenvalues --   -0.60810  -0.59980  -0.59574  -0.58929  -0.58626
 Alpha  occ. eigenvalues --   -0.58437  -0.58032  -0.57158  -0.57073  -0.56527
 Alpha  occ. eigenvalues --   -0.56119  -0.55935  -0.54480  -0.54452  -0.53993
 Alpha  occ. eigenvalues --   -0.53667  -0.53561  -0.52943  -0.52741  -0.52591
 Alpha  occ. eigenvalues --   -0.52273  -0.52026  -0.51535  -0.51333  -0.50861
 Alpha  occ. eigenvalues --   -0.50192  -0.49732  -0.49552  -0.48894  -0.48625
 Alpha  occ. eigenvalues --   -0.48449  -0.48285  -0.47785  -0.47700  -0.47618
 Alpha  occ. eigenvalues --   -0.47403  -0.45773  -0.45053  -0.44073  -0.43043
 Alpha  occ. eigenvalues --   -0.41940  -0.39628  -0.39210  -0.37936  -0.37342
 Alpha  occ. eigenvalues --   -0.37274  -0.36658  -0.35934  -0.35355  -0.34615
 Alpha  occ. eigenvalues --   -0.34313  -0.34244  -0.33358  -0.32892  -0.32869
 Alpha  occ. eigenvalues --   -0.32554  -0.32192  -0.31988  -0.31934  -0.31703
 Alpha  occ. eigenvalues --   -0.31034  -0.28097  -0.26472  -0.25517
 Alpha virt. eigenvalues --    0.03125   0.05419   0.07196   0.08320   0.08684
 Alpha virt. eigenvalues --    0.09174   0.09693   0.10180   0.10804   0.12175
 Alpha virt. eigenvalues --    0.12771   0.13345   0.14527   0.14634   0.15887

 Mulliken charges:
               1
     1  N   -0.310383
     2  C    0.180637
     3  C    0.031911
     4  N   -0.256180
     5  C    0.131849
     6  H    0.028896
     7  N   -0.281421
     8  C    0.127659
     9  H    0.016839
    10  N   -0.289860
    11  C    0.233047
    12  C    0.101564
    13  N   -0.039005
    14  H    0.107754
    15  H    0.089605
    16  H    0.027733
    17  H    0.035757
    18  H    0.025674
    19  N   -0.304011
    20  C    0.242491
    21  C    0.180476
    22  N   -0.120151
    23  H    0.111454
    24  H    0.117857
    25  N   -0.302386
    26  C    0.240650
    27  N   -0.125980
    28  H    0.119118
    29  C    0.154348
    30  O   -0.323603
    31  C   -0.002011
    32  N   -0.225334
    33  C    0.127542
    34  H    0.029840
    35  H    0.031901
    36  H    0.027191
    37  H    0.022810
    38  H    0.054278
    39  H    0.063385
    40  H    0.072785
    41  H    0.030388
    42  C   -0.096857
    43  O   -0.278235
    44  C    0.179428
    45  H    0.135644
    46  N   -0.130160
    47  O   -0.352994
    48  C    0.355900
    49  H    0.046659
    50  C    0.173950
    51  C    0.038801
    52  N   -0.292464
    53  H    0.031437
    54  H    0.038383
    55  H    0.018287
    56  H    0.118277
    57  H    0.119347
    58  N   -0.043796
    59  C    0.119679
    60  C    0.237007
    61  N   -0.265981
    62  H    0.043044
    63  C    0.150676
    64  N   -0.301991
    65  H    0.024601
    66  C    0.120739
    67  N   -0.256550
    68  C    0.010188
    69  C    0.178168
    70  N   -0.306300
 Sum of Mulliken charges =  -0.00000

 Dipole moment (field-independent basis, Debye):
    X=              6.0690    Y=              6.0049    Z=              3.0604  Tot=              9.0696
 Quadrupole moment (field-independent basis, Debye-Ang):
   XX=           -138.3297   YY=           -226.3287   ZZ=           -253.0335
   XY=             12.9913   XZ=             19.9248   YZ=             -3.3950

 Normal termination of Gaussian 16 at Sat Jan 20 13:29:41 2018.
