 Gaussian 16, Revision A.03,
 Gaussian 16:  EM64L-G16RevA.03 25-Dec-2016

 ---------------------------------------
 #p wb97xd/cc-pvdz sp scf=(maxcycles=20)
 ---------------------------------------

 ------------------
 Base pair stacking
 ------------------
 Symbolic Z-matrix:
 Charge =  0 Multiplicity = 1

                         Standard orientation:
 ---------------------------------------------------------------------
 Center     Atomic      Atomic             Coordinates (Angstroms)
 Number     Number       Type             X           Y           Z
 ---------------------------------------------------------------------
      1          7           0        4.272378   -1.211135   -1.958759
      2          6           0        5.602217   -0.626096   -2.218082
      3          6           0        2.109719   -1.476329   -1.658890
      4          7           0        2.679960   -2.731379   -1.502662
      5          6           0        3.960061   -2.521376   -1.689578
      6          1           0        4.728416   -3.293597   -1.642257
      7          7           0        0.552193    0.289943   -1.790496
      8          6           0        1.593068    1.086751   -2.053655
      9          1           0        1.347272    2.136043   -2.211265
     10          7           0        2.885913    0.783429   -2.150897
     11          6           0        3.078821   -0.529158   -1.940358
     12          6           0        0.779280   -1.025590   -1.583426
     13          7           0       -0.258453   -1.822586   -1.320600
     14          1           0       -0.137045   -2.802852   -1.160709
     15          1           0       -1.192111   -1.467200   -1.274577
     16          1           0        6.007725   -1.060213   -3.022633
     17          1           0        5.509184    0.355604   -2.381541
     18          1           0        6.194657   -0.775820   -1.426508
     19          7           0        5.718749    1.272321    0.742977
     20          6           0        4.353878    1.383313    0.856369
     21          6           0        6.638050    2.371907    0.387338
     22          7           0        1.468996    3.310143    0.693616
     23          1           0        0.486649    3.179998    0.825163
     24          1           0        1.775487    4.229009    0.443701
     25          7           0        3.629094    2.506490    0.663502
     26          6           0        2.337069    2.298536    0.845276
     27          7           0        1.794326    1.084307    1.189619
     28          1           0        0.795028    1.017865    1.307761
     29          6           0        2.520989   -0.084620    1.393180
     30          8           0        1.933699   -1.128959    1.701683
     31          6           0        3.910591    0.123066    1.201469
     32          7           0        4.975734   -0.761304    1.302691
     33          6           0        6.025196   -0.037012    1.022966
     34          1           0        7.050122   -0.409209    1.006513
     35          1           0        7.130412    2.139113   -0.450639
     36          1           0        6.112469    3.209116    0.242066
     37          1           0        7.292223    2.514826    1.129263
     38          1           0       -4.282661    1.198330    1.114779
     39          1           0       -4.137372    1.326894    2.866066
     40          1           0       -2.882866    2.002116    1.826036
     41          1           0       -3.421158   -3.392681    2.266720
     42          6           0       -2.877540   -2.454741    2.152769
     43          8           0       -0.745409   -3.489595    2.051850
     44          6           0       -1.451511   -2.481637    2.036435
     45          1           0        0.143634   -1.219411    1.811441
     46          7           0       -0.862857   -1.241013    1.896525
     47          8           0       -0.887373    1.023854    1.732299
     48          6           0       -1.496076   -0.023950    1.859716
     49          1           0       -4.606697   -1.208496    2.204739
     50          6           0       -3.523350   -1.283209    2.120338
     51          6           0       -3.590964    1.195382    1.943998
     52          7           0       -2.870860   -0.080572    1.977926
     53          1           0       -6.613721    3.655824   -1.736973
     54          1           0       -5.216952    3.743613   -0.898263
     55          1           0       -6.639115    3.630211   -0.105374
     56          1           0       -3.681602   -3.118718   -0.979512
     57          1           0       -5.364070   -2.837730   -1.000744
     58          7           0       -4.436559   -2.462835   -0.980965
     59          6           0       -4.217291   -1.146571   -0.957598
     60          6           0       -4.858734    1.144645   -0.932421
     61          7           0       -3.602503    1.619631   -0.906129
     62          1           0       -1.677397    0.916609   -0.887639
     63          6           0       -2.724739    0.618418   -0.908068
     64          7           0       -2.942356   -0.700550   -0.931466
     65          1           0       -8.089628    1.250834   -0.979803
     66          6           0       -7.042364    0.947428   -0.968541
     67          7           0       -6.626376   -0.295340   -0.981159
     68          6           0       -5.243646   -0.184525   -0.958503
     69          6           0       -6.132390    3.342740   -0.918256
     70          7           0       -6.025982    1.870921   -0.939055
 ---------------------------------------------------------------------

 SCF Done:  E(RwB97XD) =  -2048.74327461     A.U. after   15 cycles

 The electronic state is 1-A.
 Alpha  occ. eigenvalues --  -19.25069 -19.21285 -19.20645 -14.52908 -14.51437
 Alpha  occ. eigenvalues --  -14.49415 -14.48714 -14.48496 -14.47073 -14.46816
 Alpha  occ. eigenvalues --  -14.46709 -14.45731 -14.44961 -14.44861 -14.43063
 Alpha  occ. eigenvalues --  -14.42013 -14.41687 -14.41329 -14.41051 -14.40885
 Alpha  occ. eigenvalues --  -10.44628 -10.41263 -10.40584 -10.39384 -10.38357
 Alpha  occ. eigenvalues --  -10.38311 -10.37672 -10.36968 -10.36368 -10.35962
 Alpha  occ. eigenvalues --  -10.34742 -10.34175 -10.34045 -10.33849 -10.33524
 Alpha  occ. eigenvalues --  -10.33480 -10.33466 -10.33305 -10.31539 -10.30642
 Alpha  occ. eigenvalues --  -10.30333 -10.28703 -10.28514  -1.18623  -1.15680
 Alpha  occ. eigenvalues --   -1.13359  -1.12294  -1.11180  -1.11048  -1.09977
 Alpha  occ. eigenvalues --   -1.08648  -1.08349  -1.05528  -1.05460  -1.01664
 Alpha  occ. eigenvalues --   -1.01351  -1.00939  -0.99785  -0.98756  -0.97565
 Alpha  occ. eigenvalues --   -0.97066  -0.96817  -0.93216  -0.90194  -0.88159
 Alpha  occ. eigenvalues --   -0.86272  -0.84609  -0.83927  -0.83029  -0.82519
 Alpha  occ. eigenvalues --   -0.82274  -0.78085  -0.77506  -0.75427  -0.74959
 Alpha  occ. eigenvalues --   -0.73738  -0.73120  -0.72540  -0.71338  -0.70914
 Alpha  occ. eigenvalues --   -0.67566  -0.67307  -0.66528  -0.65779  -0.64702
 Alpha  occ. eigenvalues --   -0.64575  -0.63320  -0.63003  -0.62715  -0.61963
 Alpha  occ. eigenvalues --   -0.61071  -0.60906  -0.60678  -0.59920  -0.58918
 Alpha  occ. eigenvalues --   -0.58809  -0.58419  -0.57773  -0.56793  -0.55990
 Alpha  occ. eigenvalues --   -0.55773  -0.55627  -0.55611  -0.54852  -0.54243
 Alpha  occ. eigenvalues --   -0.54021  -0.53948  -0.53330  -0.53198  -0.53010
 Alpha  occ. eigenvalues --   -0.52163  -0.51720  -0.51394  -0.50724  -0.50560
 Alpha  occ. eigenvalues --   -0.50380  -0.50202  -0.49710  -0.49288  -0.49069
 Alpha  occ. eigenvalues --   -0.48719  -0.48183  -0.48075  -0.47446  -0.47077
 Alpha  occ. eigenvalues --   -0.47062  -0.45662  -0.45511  -0.45247  -0.42509
 Alpha  occ. eigenvalues --   -0.41513  -0.41167  -0.38862  -0.38256  -0.38063
 Alpha  occ. eigenvalues --   -0.37871  -0.37348  -0.37009  -0.35397  -0.35143
 Alpha  occ. eigenvalues --   -0.34858  -0.34090  -0.33820  -0.33661  -0.33127
 Alpha  occ. eigenvalues --   -0.32707  -0.32443  -0.31989  -0.31007  -0.30930
 Alpha  occ. eigenvalues --   -0.30782  -0.30655  -0.26356  -0.25591
 Alpha virt. eigenvalues --    0.02675   0.04695   0.06106   0.07591   0.08577
 Alpha virt. eigenvalues --    0.09088   0.09635   0.10027   0.10736   0.12296
 Alpha virt. eigenvalues --    0.13270   0.13746   0.14102   0.14468   0.14725

 Mulliken charges:
               1
     1  N   -0.299825
     2  C    0.186515
     3  C    0.059687
     4  N   -0.254169
     5  C    0.152834
     6  H    0.029124
     7  N   -0.288285
     8  C    0.124199
     9  H    0.005431
    10  N   -0.274153
    11  C    0.230349
    12  C    0.078558
    13  N   -0.062722
    14  H    0.115965
    15  H    0.084604
    16  H    0.023722
    17  H    0.029588
    18  H    0.017294
    19  N   -0.304321
    20  C    0.256652
    21  C    0.183538
    22  N   -0.112760
    23  H    0.120787
    24  H    0.118647
    25  N   -0.297985
    26  C    0.220339
    27  N   -0.126600
    28  H    0.118909
    29  C    0.184320
    30  O   -0.318399
    31  C   -0.015195
    32  N   -0.219439
    33  C    0.094745
    34  H    0.027100
    35  H    0.019860
    36  H    0.033451
    37  H    0.026626
    38  H    0.055083
    39  H    0.048881
    40  H    0.075037
    41  H    0.020212
    42  C   -0.108224
    43  O   -0.269452
    44  C    0.171488
    45  H    0.132838
    46  N   -0.124136
    47  O   -0.347196
    48  C    0.336185
    49  H    0.045497
    50  C    0.165745
    51  C    0.057756
    52  N   -0.275456
    53  H    0.035610
    54  H    0.041318
    55  H    0.031014
    56  H    0.122344
    57  H    0.119609
    58  N   -0.056685
    59  C    0.088894
    60  C    0.199853
    61  N   -0.256841
    62  H    0.033617
    63  C    0.156241
    64  N   -0.303085
    65  H    0.040573
    66  C    0.140991
    67  N   -0.256616
    68  C    0.036729
    69  C    0.179339
    70  N   -0.306152
 Sum of Mulliken charges =  -0.00000

 Dipole moment (field-independent basis, Debye):
    X=             -6.5282    Y=              7.6503    Z=             -1.6154  Tot=             10.1860
 Quadrupole moment (field-independent basis, Debye-Ang):
   XX=           -151.6460   YY=           -229.6822   ZZ=           -253.3678
   XY=              1.2118   XZ=            -15.2300   YZ=             14.3930

 Normal termination of Gaussian 16 at Sun Jan 21 02:29:48 2018.
