 Gaussian 16, Revision A.03,
 Gaussian 16:  EM64L-G16RevA.03 25-Dec-2016

 ---------------------------------------
 #p wb97xd/cc-pvdz sp scf=(maxcycles=20)
 ---------------------------------------

 ------------------
 Base pair stacking
 ------------------
 Symbolic Z-matrix:
 Charge =  0 Multiplicity = 1

                         Standard orientation:
 ---------------------------------------------------------------------
 Center     Atomic      Atomic             Coordinates (Angstroms)
 Number     Number       Type             X           Y           Z
 ---------------------------------------------------------------------
      1          7           0       -5.490800   -1.741501    0.957965
      2          6           0       -6.827139   -1.290072    1.392033
      3          6           0       -3.315542   -1.947357    0.706658
      4          7           0       -3.893074   -2.913073   -0.104852
      5          6           0       -5.180475   -2.750407    0.079017
      6          1           0       -5.955912   -3.344277   -0.405706
      7          7           0       -1.743060   -0.588859    1.822347
      8          6           0       -2.788007    0.025363    2.386611
      9          1           0       -2.537544    0.832939    3.073164
     10          7           0       -4.089775   -0.207115    2.230872
     11          6           0       -4.287805   -1.217432    1.368038
     12          6           0       -1.975499   -1.601417    0.958761
     13          7           0       -0.933714   -2.215781    0.394472
     14          1           0       -1.058809   -2.970317   -0.250688
     15          1           0        0.006802   -1.942926    0.597271
     16          1           0       -7.308843   -2.046889    1.834045
     17          1           0       -6.730592   -0.534406    2.039152
     18          1           0       -7.351323   -0.981913    0.598143
     19          7           0       -4.536405    1.997145   -0.842865
     20          6           0       -3.164915    2.065291   -0.793494
     21          6           0       -5.461797    3.002797   -0.283404
     22          7           0       -0.268421    3.724620    0.164976
     23          1           0        0.718979    3.585601    0.094510
     24          1           0       -0.577714    4.554425    0.630254
     25          7           0       -2.438111    3.054445   -0.230118
     26          6           0       -1.139392    2.838659   -0.341372
     27          7           0       -0.592258    1.738971   -0.956868
     28          1           0        0.412094    1.656606   -0.995275
     29          6           0       -1.320890    0.708913   -1.543316
     30          8           0       -0.729231   -0.239674   -2.073279
     31          6           0       -2.717671    0.926676   -1.431723
     32          7           0       -3.786860    0.159158   -1.872907
     33          6           0       -4.842536    0.831734   -1.502229
     34          1           0       -5.872019    0.521916   -1.685092
     35          1           0       -6.043515    2.575002    0.407532
     36          1           0       -4.934772    3.740437    0.136599
     37          1           0       -6.032160    3.376355   -1.014130
     38          1           0        5.445339    1.518658   -0.288102
     39          1           0        5.485129    2.128665   -1.940662
     40          1           0        4.145738    2.556544   -0.875626
     41          1           0        4.601334   -2.531991   -2.742993
     42          6           0        4.070776   -1.634599   -2.424512
     43          8           0        1.916201   -2.547643   -2.813427
     44          6           0        2.640128   -1.619671   -2.453446
     45          1           0        1.060000   -0.387655   -2.036723
     46          7           0        2.069120   -0.436358   -2.030397
     47          8           0        2.129086    1.692867   -1.242995
     48          6           0        2.723208    0.690314   -1.598758
     49          1           0        5.824497   -0.511396   -1.967675
     50          6           0        4.736787   -0.551096   -2.008525
     51          6           0        4.843311    1.777900   -1.146248
     52          7           0        4.101155    0.598298   -1.599554
     53          1           0        5.461195    1.902172    3.961467
     54          1           0        4.144308    2.486742    3.195826
     55          1           0        5.627572    2.705817    2.550836
     56          1           0        2.481680   -3.362898   -0.335874
     57          1           0        4.160847   -3.233082   -0.064485
     58          7           0        3.245610   -2.844998    0.049285
     59          6           0        3.053453   -1.688182    0.686482
     60          6           0        3.736714    0.256187    1.875739
     61          7           0        2.496459    0.753364    2.013532
     62          1           0        0.567606    0.273842    1.513349
     63          6           0        1.603562   -0.055811    1.447089
     64          7           0        1.794018   -1.214856    0.808414
     65          1           0        6.952713    0.129468    2.181445
     66          6           0        5.904971   -0.062815    1.948636
     67          7           0        5.466663   -1.112851    1.298247
     68          6           0        4.093392   -0.923047    1.245095
     69          6           0        5.047034    2.076946    3.068197
     70          7           0        4.912155    0.807236    2.328175
 ---------------------------------------------------------------------

 SCF Done:  E(RwB97XD) =  -2048.74965308     A.U. after   15 cycles

 The electronic state is 1-A.
 Alpha  occ. eigenvalues --  -19.25671 -19.22066 -19.20695 -14.52353 -14.52127
 Alpha  occ. eigenvalues --  -14.48880 -14.48671 -14.47673 -14.47567 -14.46964
 Alpha  occ. eigenvalues --  -14.46733 -14.45371 -14.44095 -14.44088 -14.42190
 Alpha  occ. eigenvalues --  -14.42076 -14.41109 -14.41043 -14.40979 -14.40310
 Alpha  occ. eigenvalues --  -10.45230 -10.41314 -10.40158 -10.39594 -10.38323
 Alpha  occ. eigenvalues --  -10.37886 -10.37284 -10.37020 -10.35573 -10.35392
 Alpha  occ. eigenvalues --  -10.35100 -10.34458 -10.33870 -10.33866 -10.33515
 Alpha  occ. eigenvalues --  -10.33276 -10.33110 -10.32499 -10.31191 -10.30960
 Alpha  occ. eigenvalues --  -10.30875 -10.28395 -10.28217  -1.19242  -1.15094
 Alpha  occ. eigenvalues --   -1.13274  -1.13111  -1.11199  -1.10685  -1.09112
 Alpha  occ. eigenvalues --   -1.09003  -1.08635  -1.05025  -1.04524  -1.02377
 Alpha  occ. eigenvalues --   -1.00831  -1.00394  -0.99808  -0.98618  -0.96880
 Alpha  occ. eigenvalues --   -0.96684  -0.96554  -0.92695  -0.90787  -0.87476
 Alpha  occ. eigenvalues --   -0.85793  -0.84210  -0.83903  -0.83493  -0.82587
 Alpha  occ. eigenvalues --   -0.82321  -0.78615  -0.76830  -0.74732  -0.74614
 Alpha  occ. eigenvalues --   -0.73706  -0.73218  -0.72846  -0.71012  -0.70171
 Alpha  occ. eigenvalues --   -0.67469  -0.66591  -0.66320  -0.66242  -0.64432
 Alpha  occ. eigenvalues --   -0.64003  -0.63749  -0.62703  -0.62661  -0.61855
 Alpha  occ. eigenvalues --   -0.60816  -0.60389  -0.60213  -0.59293  -0.59199
 Alpha  occ. eigenvalues --   -0.58792  -0.58441  -0.56955  -0.56554  -0.56240
 Alpha  occ. eigenvalues --   -0.55889  -0.55458  -0.55107  -0.54387  -0.54215
 Alpha  occ. eigenvalues --   -0.53707  -0.53637  -0.53424  -0.53276  -0.53022
 Alpha  occ. eigenvalues --   -0.52634  -0.52324  -0.51812  -0.50775  -0.50274
 Alpha  occ. eigenvalues --   -0.50240  -0.49788  -0.49435  -0.49136  -0.48920
 Alpha  occ. eigenvalues --   -0.48827  -0.48477  -0.48066  -0.47660  -0.47403
 Alpha  occ. eigenvalues --   -0.46925  -0.45995  -0.44862  -0.44766  -0.43202
 Alpha  occ. eigenvalues --   -0.41028  -0.40544  -0.39289  -0.37833  -0.37373
 Alpha  occ. eigenvalues --   -0.37336  -0.37270  -0.37062  -0.36166  -0.34438
 Alpha  occ. eigenvalues --   -0.34281  -0.33979  -0.33413  -0.33349  -0.33276
 Alpha  occ. eigenvalues --   -0.32728  -0.32409  -0.32066  -0.31930  -0.30859
 Alpha  occ. eigenvalues --   -0.30442  -0.29286  -0.25883  -0.25345
 Alpha virt. eigenvalues --    0.03390   0.04144   0.07323   0.07842   0.08372
 Alpha virt. eigenvalues --    0.09173   0.09656   0.10518   0.11035   0.12157
 Alpha virt. eigenvalues --    0.13097   0.13532   0.14391   0.14435   0.14966

 Mulliken charges:
               1
     1  N   -0.308460
     2  C    0.178941
     3  C    0.064370
     4  N   -0.250098
     5  C    0.134406
     6  H    0.025182
     7  N   -0.294661
     8  C    0.135279
     9  H    0.010926
    10  N   -0.289149
    11  C    0.233169
    12  C    0.091639
    13  N   -0.045593
    14  H    0.113894
    15  H    0.084660
    16  H    0.026907
    17  H    0.033052
    18  H    0.019075
    19  N   -0.305495
    20  C    0.259553
    21  C    0.182761
    22  N   -0.122714
    23  H    0.117698
    24  H    0.118315
    25  N   -0.310697
    26  C    0.246370
    27  N   -0.146609
    28  H    0.119031
    29  C    0.190940
    30  O   -0.324028
    31  C   -0.019285
    32  N   -0.217982
    33  C    0.121324
    34  H    0.018868
    35  H    0.026266
    36  H    0.030191
    37  H    0.023052
    38  H    0.052705
    39  H    0.060930
    40  H    0.074545
    41  H    0.020754
    42  C   -0.105454
    43  O   -0.274912
    44  C    0.156330
    45  H    0.130266
    46  N   -0.106403
    47  O   -0.345422
    48  C    0.336014
    49  H    0.045334
    50  C    0.173460
    51  C    0.042718
    52  N   -0.278153
    53  H    0.034464
    54  H    0.041611
    55  H    0.023095
    56  H    0.127416
    57  H    0.115922
    58  N   -0.047493
    59  C    0.078671
    60  C    0.229567
    61  N   -0.267418
    62  H    0.031440
    63  C    0.161768
    64  N   -0.299628
    65  H    0.035374
    66  C    0.117679
    67  N   -0.255929
    68  C    0.041755
    69  C    0.182292
    70  N   -0.304393
 Sum of Mulliken charges =  -0.00000

 Dipole moment (field-independent basis, Debye):
    X=              6.3102    Y=              6.5225    Z=              3.6627  Tot=              9.7865
 Quadrupole moment (field-independent basis, Debye-Ang):
   XX=           -148.1136   YY=           -223.6747   ZZ=           -257.8291
   XY=              7.4510   XZ=              1.4295   YZ=             -0.1621

 Normal termination of Gaussian 16 at Sat Jan 20 10:30:23 2018.
