 Gaussian 16, Revision A.03,
 Gaussian 16:  EM64L-G16RevA.03 25-Dec-2016

 ---------------------------------------
 #p wb97xd/cc-pvdz sp scf=(maxcycles=20)
 ---------------------------------------

 ------------------
 Base pair stacking
 ------------------
 Symbolic Z-matrix:
 Charge =  0 Multiplicity = 1

                         Standard orientation:
 ---------------------------------------------------------------------
 Center     Atomic      Atomic             Coordinates (Angstroms)
 Number     Number       Type             X           Y           Z
 ---------------------------------------------------------------------
      1          7           0       -6.631403   -1.152373    0.443922
      2          6           0       -7.955923   -0.511630    0.558458
      3          6           0       -4.471914   -1.557837    0.541487
      4          7           0       -5.051937   -2.679940   -0.032259
      5          6           0       -6.329740   -2.390751   -0.068071
      6          1           0       -7.103925   -3.050381   -0.461096
      7          7           0       -2.900982   -0.034334    1.421273
      8          6           0       -3.934970    0.781528    1.651095
      9          1           0       -3.680879    1.736703    2.108634
     10          7           0       -5.229628    0.595506    1.401747
     11          6           0       -5.432961   -0.607791    0.840370
     12          6           0       -3.138503   -1.237849    0.855410
     13          7           0       -2.107659   -2.053648    0.625208
     14          1           0       -2.236858   -2.953964    0.208141
     15          1           0       -1.171590   -1.792851    0.861670
     16          1           0       -8.552119   -1.075402    1.130200
     17          1           0       -7.855065    0.392117    0.973411
     18          1           0       -8.361873   -0.415824   -0.350404
     19          7           0       -3.294304    1.983563   -1.448648
     20          6           0       -1.935261    1.980048   -1.246089
     21          6           0       -4.202857    3.101659   -1.124435
     22          7           0        0.947155    3.580387   -0.154152
     23          1           0        1.924089    3.378320   -0.090749
     24          1           0        0.647461    4.477862    0.170569
     25          7           0       -1.207379    2.989304   -0.721066
     26          6           0        0.077308    2.688581   -0.652097
     27          7           0        0.610425    1.491634   -1.065155
     28          1           0        1.604597    1.348728   -0.974783
     29          6           0       -0.119605    0.439073   -1.608329
     30          8           0        0.458831   -0.600018   -1.949557
     31          6           0       -1.501411    0.747323   -1.688773
     32          7           0       -2.566651   -0.007866   -2.159780
     33          6           0       -3.606919    0.764052   -1.997944
     34          1           0       -4.629149    0.492255   -2.263358
     35          1           0       -4.885843    2.796870   -0.461534
     36          1           0       -3.674885    3.855108   -0.734802
     37          1           0       -4.661477    3.412576   -1.956188
     38          1           0        6.506935    1.017102    0.332819
     39          1           0        6.771503    1.412852   -1.363660
     40          1           0        5.356172    2.045010   -0.521890
     41          1           0        5.656522   -3.254328   -1.711269
     42          6           0        5.158408   -2.295774   -1.565343
     43          8           0        3.001117   -3.127523   -2.095819
     44          6           0        3.744274   -2.204087   -1.764502
     45          1           0        2.218265   -0.842739   -1.684916
     46          7           0        3.214598   -0.946981   -1.553849
     47          8           0        3.336708    1.257103   -1.020638
     48          6           0        3.894585    0.186152   -1.183470
     49          1           0        6.925541   -1.224815   -1.039915
     50          6           0        5.848895   -1.208032   -1.203909
     51          6           0        6.022928    1.200665   -0.614872
     52          7           0        5.254321    0.017354   -1.010781
     53          1           0        4.246613    2.516699    3.676611
     54          1           0        3.079804    2.934093    2.615280
     55          1           0        4.636620    2.862896    2.130182
     56          1           0        1.238496   -3.574560    0.691079
     57          1           0        2.884675   -3.476454    1.127643
     58          7           0        2.004360   -3.015718    1.009341
     59          6           0        1.859266   -1.713873    1.264933
     60          6           0        2.598985    0.445857    1.935844
     61          7           0        1.404998    1.038025    1.768051
     62          1           0       -0.498164    0.555057    1.180410
     63          6           0        0.502299    0.156394    1.342894
     64          7           0        0.645660   -1.147905    1.086317
     65          1           0        5.737931    0.213117    2.674081
     66          6           0        4.706661    0.027185    2.372664
     67          7           0        4.239428   -1.137196    1.993719
     68          6           0        2.904060   -0.885750    1.713865
     69          6           0        3.947071    2.449375    2.724907
     70          7           0        3.768325    1.030238    2.361452
 ---------------------------------------------------------------------

 SCF Done:  E(RwB97XD) =  -2048.75113049     A.U. after   15 cycles

 The electronic state is 1-A.
 Alpha  occ. eigenvalues --  -19.25968 -19.21998 -19.20576 -14.52467 -14.51655
 Alpha  occ. eigenvalues --  -14.49490 -14.48494 -14.47880 -14.46797 -14.46711
 Alpha  occ. eigenvalues --  -14.46477 -14.44635 -14.43151 -14.43132 -14.42716
 Alpha  occ. eigenvalues --  -14.42083 -14.41924 -14.41742 -14.40810 -14.40663
 Alpha  occ. eigenvalues --  -10.45551 -10.41027 -10.40102 -10.38780 -10.38114
 Alpha  occ. eigenvalues --  -10.37659 -10.37214 -10.36230 -10.36051 -10.35712
 Alpha  occ. eigenvalues --  -10.34873 -10.34735 -10.34176 -10.34073 -10.33783
 Alpha  occ. eigenvalues --  -10.33623 -10.33134 -10.31634 -10.31581 -10.30938
 Alpha  occ. eigenvalues --  -10.30232 -10.29213 -10.27953  -1.19531  -1.14326
 Alpha  occ. eigenvalues --   -1.13117  -1.13030  -1.12061  -1.10407  -1.09344
 Alpha  occ. eigenvalues --   -1.08433  -1.08113  -1.05657  -1.03656  -1.02531
 Alpha  occ. eigenvalues --   -1.01078  -1.00119  -0.99580  -0.98409  -0.97620
 Alpha  occ. eigenvalues --   -0.96319  -0.95715  -0.93302  -0.90972  -0.86800
 Alpha  occ. eigenvalues --   -0.85268  -0.84630  -0.83936  -0.83822  -0.82978
 Alpha  occ. eigenvalues --   -0.82107  -0.78843  -0.76088  -0.74441  -0.73842
 Alpha  occ. eigenvalues --   -0.73553  -0.73515  -0.73359  -0.71735  -0.69463
 Alpha  occ. eigenvalues --   -0.67229  -0.66941  -0.66545  -0.65797  -0.64429
 Alpha  occ. eigenvalues --   -0.63599  -0.63471  -0.63189  -0.62576  -0.61572
 Alpha  occ. eigenvalues --   -0.60805  -0.60518  -0.59647  -0.59478  -0.58727
 Alpha  occ. eigenvalues --   -0.58521  -0.58196  -0.57187  -0.57128  -0.56367
 Alpha  occ. eigenvalues --   -0.55993  -0.55935  -0.54695  -0.54619  -0.54358
 Alpha  occ. eigenvalues --   -0.53694  -0.53476  -0.52828  -0.52746  -0.52673
 Alpha  occ. eigenvalues --   -0.52463  -0.52343  -0.51920  -0.51415  -0.50830
 Alpha  occ. eigenvalues --   -0.49983  -0.49726  -0.49444  -0.48967  -0.48771
 Alpha  occ. eigenvalues --   -0.48656  -0.48186  -0.47892  -0.47601  -0.47518
 Alpha  occ. eigenvalues --   -0.47325  -0.45518  -0.45393  -0.43958  -0.43632
 Alpha  occ. eigenvalues --   -0.41872  -0.39926  -0.39510  -0.37883  -0.37193
 Alpha  occ. eigenvalues --   -0.37141  -0.36959  -0.36564  -0.35656  -0.34290
 Alpha  occ. eigenvalues --   -0.34170  -0.34020  -0.33626  -0.33216  -0.33194
 Alpha  occ. eigenvalues --   -0.32606  -0.32099  -0.31912  -0.31785  -0.31610
 Alpha  occ. eigenvalues --   -0.31048  -0.28706  -0.26481  -0.25234
 Alpha virt. eigenvalues --    0.03129   0.04865   0.07315   0.08117   0.08546
 Alpha virt. eigenvalues --    0.09136   0.09833   0.10242   0.10806   0.11494
 Alpha virt. eigenvalues --    0.13058   0.13510   0.14539   0.14715   0.15113

 Mulliken charges:
               1
     1  N   -0.311042
     2  C    0.180093
     3  C    0.052468
     4  N   -0.255029
     5  C    0.130950
     6  H    0.028379
     7  N   -0.279170
     8  C    0.131544
     9  H    0.016374
    10  N   -0.291385
    11  C    0.228306
    12  C    0.102281
    13  N   -0.044317
    14  H    0.109255
    15  H    0.089321
    16  H    0.027911
    17  H    0.034166
    18  H    0.025157
    19  N   -0.300118
    20  C    0.252667
    21  C    0.180196
    22  N   -0.107587
    23  H    0.111295
    24  H    0.115054
    25  N   -0.301868
    26  C    0.228531
    27  N   -0.131172
    28  H    0.118280
    29  C    0.152629
    30  O   -0.322712
    31  C    0.004752
    32  N   -0.224316
    33  C    0.121736
    34  H    0.024252
    35  H    0.024541
    36  H    0.026099
    37  H    0.021138
    38  H    0.046398
    39  H    0.064391
    40  H    0.074921
    41  H    0.028932
    42  C   -0.102461
    43  O   -0.272411
    44  C    0.171708
    45  H    0.135633
    46  N   -0.128846
    47  O   -0.345840
    48  C    0.346570
    49  H    0.045729
    50  C    0.181050
    51  C    0.037372
    52  N   -0.282742
    53  H    0.033554
    54  H    0.036813
    55  H    0.018132
    56  H    0.122663
    57  H    0.118913
    58  N   -0.052621
    59  C    0.114570
    60  C    0.237744
    61  N   -0.276861
    62  H    0.036515
    63  C    0.168217
    64  N   -0.302783
    65  H    0.032892
    66  C    0.113560
    67  N   -0.248926
    68  C    0.002019
    69  C    0.179804
    70  N   -0.303267
 Sum of Mulliken charges =  -0.00000

 Dipole moment (field-independent basis, Debye):
    X=              5.9665    Y=              5.9767    Z=              3.5804  Tot=              9.1727
 Quadrupole moment (field-independent basis, Debye-Ang):
   XX=           -142.3612   YY=           -225.7528   ZZ=           -256.8827
   XY=             12.2772   XZ=             13.2640   YZ=             -5.7350

 Normal termination of Gaussian 16 at Sat Jan 20 08:18:40 2018.
