 Gaussian 16, Revision A.03,
 Gaussian 16:  EM64L-G16RevA.03 25-Dec-2016

 ---------------------------------------
 #p wb97xd/cc-pvdz sp scf=(maxcycles=20)
 ---------------------------------------

 ------------------
 Base pair stacking
 ------------------
 Symbolic Z-matrix:
 Charge =  0 Multiplicity = 1

                         Standard orientation:
 ---------------------------------------------------------------------
 Center     Atomic      Atomic             Coordinates (Angstroms)
 Number     Number       Type             X           Y           Z
 ---------------------------------------------------------------------
      1          7           0        6.320416   -1.135284   -0.661069
      2          6           0        7.640757   -0.476757   -0.628862
      3          6           0        4.162388   -1.520749   -0.838994
      4          7           0        4.752310   -2.742637   -0.549659
      5          6           0        6.028829   -2.461502   -0.454050
      6          1           0        6.809213   -3.190046   -0.232309
      7          7           0        2.577316    0.156769   -1.325232
      8          6           0        3.605407    1.010725   -1.362024
      9          1           0        3.343114    2.045165   -1.579745
     10          7           0        4.902778    0.779804   -1.171165
     11          6           0        5.116353   -0.520587   -0.910819
     12          6           0        2.825107   -1.144666   -1.060764
     13          7           0        1.800159   -1.998637   -1.023603
     14          1           0        1.937007   -2.971061   -0.831539
     15          1           0        0.861083   -1.695690   -1.186388
     16          1           0        8.235680   -0.885690   -1.320969
     17          1           0        7.532255    0.498694   -0.818216
     18          1           0        8.052777   -0.595387    0.274555
     19          7           0        3.659496    1.698343    1.411487
     20          6           0        2.298552    1.729600    1.224663
     21          6           0        4.594676    2.785697    1.059654
     22          7           0       -0.551341    3.392867    0.141437
     23          1           0       -1.534165    3.217128    0.092401
     24          1           0       -0.230842    4.276651   -0.200513
     25          7           0        1.592644    2.750676    0.692559
     26          6           0        0.299398    2.484815    0.643029
     27          7           0       -0.261639    1.309540    1.080592
     28          1           0       -1.260382    1.193004    1.003882
     29          6           0        0.445432    0.245385    1.631489
     30          8           0       -0.157399   -0.771945    1.995326
     31          6           0        1.836095    0.516243    1.691260
     32          7           0        2.885585   -0.261110    2.161559
     33          6           0        3.944795    0.479039    1.975884
     34          1           0        4.962221    0.182934    2.233669
     35          1           0        5.261012    2.452055    0.393700
     36          1           0        4.083134    3.547589    0.664547
     37          1           0        5.071613    3.096253    1.881174
     38          1           0       -6.185272    0.978235   -0.241954
     39          1           0       -6.418550    1.406752    1.451156
     40          1           0       -4.996416    1.986506    0.583514
     41          1           0       -5.428963   -3.283869    1.857815
     42          6           0       -4.906313   -2.341859    1.691411
     43          8           0       -2.766661   -3.225220    2.209777
     44          6           0       -3.487915   -2.286572    1.872840
     45          1           0       -1.925902   -0.969569    1.754722
     46          7           0       -2.926233   -1.048016    1.636756
     47          8           0       -2.993710    1.150314    1.071074
     48          6           0       -3.579000    0.097887    1.256799
     49          1           0       -6.649306   -1.230192    1.169908
     50          6           0       -5.570724   -1.240897    1.321215
     51          6           0       -5.685112    1.162538    0.697164
     52          7           0       -4.944848   -0.035596    1.102391
     53          1           0       -4.599423    3.119967   -2.873182
     54          1           0       -3.427122    3.282952   -1.750130
     55          1           0       -4.980011    3.088868   -1.286486
     56          1           0       -1.538521   -3.483450   -1.427061
     57          1           0       -3.188296   -3.296144   -1.818548
     58          7           0       -2.309526   -2.870436   -1.599983
     59          6           0       -2.172983   -1.544111   -1.541968
     60          6           0       -2.928621    0.707942   -1.679923
     61          7           0       -1.736511    1.251789   -1.384063
     62          1           0        0.173308    0.656563   -0.938096
     63          6           0       -0.826243    0.300804   -1.184242
     64          7           0       -0.961032   -1.028144   -1.241898
     65          1           0       -6.071592    0.634933   -2.433951
     66          6           0       -5.037224    0.390045   -2.190927
     67          7           0       -4.561281   -0.827708   -2.100209
     68          6           0       -3.225247   -0.640456   -1.776696
     69          6           0       -4.292669    2.831993   -1.966010
     70          7           0       -4.103996    1.368397   -1.948775
 ---------------------------------------------------------------------

 SCF Done:  E(RwB97XD) =  -2048.72883344     A.U. after   15 cycles

 The electronic state is 1-A.
 Alpha  occ. eigenvalues --  -19.25664 -19.21796 -19.20422 -14.52371 -14.52154
 Alpha  occ. eigenvalues --  -14.49577 -14.48192 -14.47700 -14.47632 -14.46382
 Alpha  occ. eigenvalues --  -14.45895 -14.45163 -14.43753 -14.43608 -14.43078
 Alpha  occ. eigenvalues --  -14.42126 -14.41753 -14.41702 -14.40948 -14.40508
 Alpha  occ. eigenvalues --  -10.45332 -10.40722 -10.39917 -10.39486 -10.37879
 Alpha  occ. eigenvalues --  -10.37715 -10.37576 -10.36824 -10.36231 -10.35515
 Alpha  occ. eigenvalues --  -10.35299 -10.34770 -10.34229 -10.34134 -10.33845
 Alpha  occ. eigenvalues --  -10.33842 -10.32993 -10.32116 -10.31805 -10.30844
 Alpha  occ. eigenvalues --  -10.29513 -10.29255 -10.27640  -1.19413  -1.14905
 Alpha  occ. eigenvalues --   -1.12973  -1.12828  -1.12132  -1.10236  -1.09260
 Alpha  occ. eigenvalues --   -1.08779  -1.08195  -1.05829  -1.04342  -1.02368
 Alpha  occ. eigenvalues --   -1.01313  -1.00720  -0.99228  -0.98257  -0.97739
 Alpha  occ. eigenvalues --   -0.96368  -0.96076  -0.93518  -0.90886  -0.87455
 Alpha  occ. eigenvalues --   -0.85895  -0.84752  -0.83851  -0.83563  -0.83101
 Alpha  occ. eigenvalues --   -0.81709  -0.78724  -0.76759  -0.74607  -0.74221
 Alpha  occ. eigenvalues --   -0.73677  -0.73326  -0.73167  -0.71879  -0.70164
 Alpha  occ. eigenvalues --   -0.67128  -0.66967  -0.66497  -0.66384  -0.64383
 Alpha  occ. eigenvalues --   -0.64057  -0.63519  -0.63357  -0.62545  -0.61359
 Alpha  occ. eigenvalues --   -0.61305  -0.61008  -0.60443  -0.59431  -0.59295
 Alpha  occ. eigenvalues --   -0.58290  -0.57897  -0.57556  -0.57294  -0.56503
 Alpha  occ. eigenvalues --   -0.56114  -0.55857  -0.55259  -0.54821  -0.54402
 Alpha  occ. eigenvalues --   -0.54120  -0.53377  -0.53194  -0.52795  -0.52590
 Alpha  occ. eigenvalues --   -0.52400  -0.52295  -0.52245  -0.51408  -0.50860
 Alpha  occ. eigenvalues --   -0.49877  -0.49720  -0.49261  -0.49074  -0.48780
 Alpha  occ. eigenvalues --   -0.48391  -0.48306  -0.47940  -0.47714  -0.47167
 Alpha  occ. eigenvalues --   -0.47076  -0.45518  -0.45285  -0.44302  -0.43443
 Alpha  occ. eigenvalues --   -0.41881  -0.40625  -0.39390  -0.38049  -0.37512
 Alpha  occ. eigenvalues --   -0.37424  -0.36963  -0.36940  -0.35693  -0.34539
 Alpha  occ. eigenvalues --   -0.34295  -0.34033  -0.33906  -0.33113  -0.32981
 Alpha  occ. eigenvalues --   -0.32429  -0.31942  -0.31787  -0.31613  -0.31567
 Alpha  occ. eigenvalues --   -0.31193  -0.29276  -0.26472  -0.24846
 Alpha virt. eigenvalues --    0.03184   0.04458   0.07075   0.07455   0.08273
 Alpha virt. eigenvalues --    0.08920   0.10000   0.10357   0.11109   0.11880
 Alpha virt. eigenvalues --    0.13165   0.13457   0.14170   0.14668   0.14757

 Mulliken charges:
               1
     1  N   -0.311380
     2  C    0.178299
     3  C    0.066787
     4  N   -0.256409
     5  C    0.131785
     6  H    0.028518
     7  N   -0.274593
     8  C    0.137218
     9  H    0.016062
    10  N   -0.288143
    11  C    0.226916
    12  C    0.098603
    13  N   -0.047086
    14  H    0.108942
    15  H    0.088672
    16  H    0.028674
    17  H    0.034858
    18  H    0.025903
    19  N   -0.281982
    20  C    0.221966
    21  C    0.179300
    22  N   -0.088924
    23  H    0.113797
    24  H    0.110724
    25  N   -0.291902
    26  C    0.197780
    27  N   -0.142501
    28  H    0.133579
    29  C    0.151914
    30  O   -0.323560
    31  C    0.018536
    32  N   -0.220294
    33  C    0.120017
    34  H    0.018333
    35  H    0.019780
    36  H    0.024207
    37  H    0.017856
    38  H    0.039216
    39  H    0.061727
    40  H    0.072907
    41  H    0.029076
    42  C   -0.110086
    43  O   -0.266433
    44  C    0.176287
    45  H    0.132317
    46  N   -0.127014
    47  O   -0.337222
    48  C    0.340779
    49  H    0.045274
    50  C    0.179252
    51  C    0.043780
    52  N   -0.279648
    53  H    0.035428
    54  H    0.033316
    55  H    0.015918
    56  H    0.122486
    57  H    0.119648
    58  N   -0.062325
    59  C    0.118829
    60  C    0.236175
    61  N   -0.287197
    62  H    0.039040
    63  C    0.163457
    64  N   -0.305584
    65  H    0.041155
    66  C    0.098555
    67  N   -0.243990
    68  C    0.013435
    69  C    0.182597
    70  N   -0.293409
 Sum of Mulliken charges =  -0.00000

 Dipole moment (field-independent basis, Debye):
    X=             -5.7830    Y=              5.9941    Z=             -4.2655  Tot=              9.3577
 Quadrupole moment (field-independent basis, Debye-Ang):
   XX=           -144.4701   YY=           -227.7543   ZZ=           -259.1953
   XY=            -12.6390   XZ=              8.1156   YZ=             10.2930

 Normal termination of Gaussian 16 at Sat Jan 20 15:06:46 2018.
