 Gaussian 16, Revision A.03,
 Gaussian 16:  EM64L-G16RevA.03 25-Dec-2016

 ---------------------------------------
 #p wb97xd/cc-pvdz sp scf=(maxcycles=20)
 ---------------------------------------

 ------------------
 Base pair stacking
 ------------------
 Symbolic Z-matrix:
 Charge =  0 Multiplicity = 1

                         Standard orientation:
 ---------------------------------------------------------------------
 Center     Atomic      Atomic             Coordinates (Angstroms)
 Number     Number       Type             X           Y           Z
 ---------------------------------------------------------------------
      1          7           0        4.606946   -1.040016   -1.747636
      2          6           0        5.950072   -0.430014   -1.791292
      3          6           0        2.429471   -1.335469   -1.654827
      4          7           0        2.990547   -2.602549   -1.721403
      5          6           0        4.279935   -2.373838   -1.774656
      6          1           0        5.045019   -3.148390   -1.835161
      7          7           0        0.880573    0.438575   -1.525806
      8          6           0        1.935191    1.260049   -1.549199
      9          1           0        1.698360    2.322197   -1.504356
     10          7           0        3.232337    0.967833   -1.619354
     11          6           0        3.413384   -0.362230   -1.670098
     12          6           0        1.095965   -0.894071   -1.578230
     13          7           0        0.044513   -1.715691   -1.554980
     14          1           0        0.156929   -2.709284   -1.591819
     15          1           0       -0.890921   -1.366278   -1.499984
     16          1           0        6.410570   -0.694875   -2.638628
     17          1           0        5.866207    0.565391   -1.755747
     18          1           0        6.487393   -0.745685   -1.009230
     19          7           0        5.416691    1.215801    0.871466
     20          6           0        4.046528    1.309429    0.915522
     21          6           0        6.336022    2.312514    0.507124
     22          7           0        1.145373    3.178536    0.526376
     23          1           0        0.159850    3.038497    0.617940
     24          1           0        1.450210    4.089593    0.247510
     25          7           0        3.315735    2.410169    0.635622
     26          6           0        2.019646    2.189661    0.766529
     27          7           0        1.478575    0.984143    1.142666
     28          1           0        0.475856    0.906812    1.217017
     29          6           0        2.211400   -0.161759    1.435498
     30          8           0        1.625110   -1.200016    1.765694
     31          6           0        3.605427    0.059636    1.299254
     32          7           0        4.677095   -0.801283    1.492222
     33          6           0        5.728189   -0.073679    1.227620
     34          1           0        6.757948   -0.429257    1.276856
     35          1           0        6.870874    2.048774   -0.294862
     36          1           0        5.806008    3.133175    0.297668
     37          1           0        6.952127    2.500927    1.271142
     38          1           0       -4.589013    0.994065    0.778548
     39          1           0       -4.528866    1.207148    2.526583
     40          1           0       -3.236191    1.853408    1.515285
     41          1           0       -3.717608   -3.522892    2.187204
     42          6           0       -3.182675   -2.582479    2.054170
     43          8           0       -1.033575   -3.585551    2.102491
     44          6           0       -1.752483   -2.591239    2.006022
     45          1           0       -0.166666   -1.314783    1.795861
     46          7           0       -1.175642   -1.348997    1.834744
     47          8           0       -1.224714    0.904937    1.561687
     48          6           0       -1.823744   -0.145649    1.710366
     49          1           0       -4.929986   -1.363916    1.965750
     50          6           0       -3.842898   -1.424600    1.935745
     51          6           0       -3.937483    1.041515    1.638389
     52          7           0       -3.201638   -0.219360    1.766758
     53          1           0       -6.279850    3.806475   -1.265356
     54          1           0       -4.943834    3.704098   -0.334395
     55          1           0       -6.416574    3.447480    0.320790
     56          1           0       -3.390998   -3.013710   -1.718303
     57          1           0       -5.068722   -2.714487   -1.794646
     58          7           0       -4.145574   -2.362562   -1.635983
     59          6           0       -3.931404   -1.081683   -1.328340
     60          6           0       -4.578249    1.163191   -0.876852
     61          7           0       -3.327828    1.607862   -0.669169
     62          1           0       -1.406889    0.893291   -0.665766
     63          6           0       -2.449705    0.617985   -0.817389
     64          7           0       -2.662243   -0.665560   -1.125497
     65          1           0       -7.798584    1.314976   -1.118830
     66          6           0       -6.753848    1.003358   -1.099582
     67          7           0       -6.335166   -0.215289   -1.338882
     68          6           0       -4.957472   -0.127806   -1.200945
     69          6           0       -5.854864    3.326660   -0.497783
     70          7           0       -5.743956    1.889159   -0.812904
 ---------------------------------------------------------------------

 SCF Done:  E(RwB97XD) =  -2048.67236330     A.U. after   15 cycles

 The electronic state is 1-A.
 Alpha  occ. eigenvalues --  -19.25006 -19.21185 -19.20613 -14.53135 -14.51422
 Alpha  occ. eigenvalues --  -14.49286 -14.48803 -14.48743 -14.47102 -14.46549
 Alpha  occ. eigenvalues --  -14.46489 -14.45999 -14.44742 -14.44511 -14.43100
 Alpha  occ. eigenvalues --  -14.41629 -14.41542 -14.41332 -14.41135 -14.40734
 Alpha  occ. eigenvalues --  -10.44622 -10.40918 -10.40671 -10.39300 -10.38503
 Alpha  occ. eigenvalues --  -10.38247 -10.37829 -10.36892 -10.36200 -10.35967
 Alpha  occ. eigenvalues --  -10.34485 -10.34480 -10.34057 -10.33958 -10.33536
 Alpha  occ. eigenvalues --  -10.33301 -10.33195 -10.32438 -10.31507 -10.31060
 Alpha  occ. eigenvalues --  -10.30263 -10.28701 -10.28362  -1.18779  -1.16107
 Alpha  occ. eigenvalues --   -1.13366  -1.12231  -1.11372  -1.10943  -1.10041
 Alpha  occ. eigenvalues --   -1.08694  -1.08351  -1.05700  -1.05550  -1.01643
 Alpha  occ. eigenvalues --   -1.01603  -1.01080  -0.99708  -0.98633  -0.97745
 Alpha  occ. eigenvalues --   -0.97069  -0.96963  -0.93269  -0.90102  -0.88510
 Alpha  occ. eigenvalues --   -0.86527  -0.84714  -0.84013  -0.82959  -0.82602
 Alpha  occ. eigenvalues --   -0.82476  -0.78043  -0.77696  -0.75686  -0.74878
 Alpha  occ. eigenvalues --   -0.73836  -0.73184  -0.72539  -0.71538  -0.71150
 Alpha  occ. eigenvalues --   -0.67550  -0.67482  -0.66705  -0.65863  -0.64975
 Alpha  occ. eigenvalues --   -0.64483  -0.63702  -0.63200  -0.62654  -0.62016
 Alpha  occ. eigenvalues --   -0.61832  -0.61174  -0.60995  -0.60183  -0.58983
 Alpha  occ. eigenvalues --   -0.58757  -0.58481  -0.58284  -0.57132  -0.56297
 Alpha  occ. eigenvalues --   -0.55994  -0.55670  -0.55614  -0.55055  -0.54815
 Alpha  occ. eigenvalues --   -0.54304  -0.54068  -0.53536  -0.53126  -0.52868
 Alpha  occ. eigenvalues --   -0.51904  -0.51875  -0.51397  -0.51058  -0.50686
 Alpha  occ. eigenvalues --   -0.50301  -0.49764  -0.49556  -0.49320  -0.49067
 Alpha  occ. eigenvalues --   -0.48620  -0.48514  -0.48002  -0.47354  -0.47233
 Alpha  occ. eigenvalues --   -0.46974  -0.45357  -0.45179  -0.44904  -0.41769
 Alpha  occ. eigenvalues --   -0.41246  -0.41090  -0.38852  -0.38717  -0.38205
 Alpha  occ. eigenvalues --   -0.38046  -0.37210  -0.36298  -0.35265  -0.35170
 Alpha  occ. eigenvalues --   -0.34723  -0.34432  -0.33830  -0.33378  -0.33015
 Alpha  occ. eigenvalues --   -0.32699  -0.32362  -0.31923  -0.30930  -0.30843
 Alpha  occ. eigenvalues --   -0.30486  -0.30100  -0.26577  -0.25158
 Alpha virt. eigenvalues --    0.02962   0.04326   0.06055   0.06441   0.08618
 Alpha virt. eigenvalues --    0.09075   0.09497   0.09756   0.11394   0.12611
 Alpha virt. eigenvalues --    0.12983   0.13558   0.14284   0.14386   0.14885

 Mulliken charges:
               1
     1  N   -0.302090
     2  C    0.193808
     3  C    0.067542
     4  N   -0.258097
     5  C    0.147236
     6  H    0.027792
     7  N   -0.278903
     8  C    0.137020
     9  H    0.004590
    10  N   -0.265624
    11  C    0.229350
    12  C    0.071073
    13  N   -0.059593
    14  H    0.111152
    15  H    0.082719
    16  H    0.025015
    17  H    0.023014
    18  H    0.015124
    19  N   -0.295486
    20  C    0.247841
    21  C    0.185501
    22  N   -0.086413
    23  H    0.123095
    24  H    0.119633
    25  N   -0.249589
    26  C    0.105798
    27  N   -0.087374
    28  H    0.120377
    29  C    0.163280
    30  O   -0.319118
    31  C    0.003122
    32  N   -0.210578
    33  C    0.080026
    34  H    0.029113
    35  H    0.012973
    36  H    0.034348
    37  H    0.026349
    38  H    0.037117
    39  H    0.034580
    40  H    0.081773
    41  H    0.023777
    42  C   -0.102798
    43  O   -0.267930
    44  C    0.175388
    45  H    0.131376
    46  N   -0.121059
    47  O   -0.343576
    48  C    0.324009
    49  H    0.045986
    50  C    0.158762
    51  C    0.080494
    52  N   -0.276794
    53  H    0.037877
    54  H    0.041989
    55  H    0.031478
    56  H    0.121670
    57  H    0.120923
    58  N   -0.060292
    59  C    0.104933
    60  C    0.211621
    61  N   -0.271251
    62  H    0.023776
    63  C    0.170215
    64  N   -0.307135
    65  H    0.039640
    66  C    0.131672
    67  N   -0.248131
    68  C    0.022510
    69  C    0.178760
    70  N   -0.305387
 Sum of Mulliken charges =  -0.00000

 Dipole moment (field-independent basis, Debye):
    X=             -6.3478    Y=              7.5565    Z=             -2.6377  Tot=             10.2153
 Quadrupole moment (field-independent basis, Debye-Ang):
   XX=           -150.8988   YY=           -232.2227   ZZ=           -255.3238
   XY=              0.3556   XZ=            -12.2567   YZ=             17.1712

 Normal termination of Gaussian 16 at Sat Jan 20 21:19:43 2018.
