 Gaussian 16, Revision A.03,
 Gaussian 16:  EM64L-G16RevA.03 25-Dec-2016

 ---------------------------------------
 #p wb97xd/cc-pvdz sp scf=(maxcycles=20)
 ---------------------------------------

 ------------------
 Base pair stacking
 ------------------
 Symbolic Z-matrix:
 Charge =  0 Multiplicity = 1

                         Standard orientation:
 ---------------------------------------------------------------------
 Center     Atomic      Atomic             Coordinates (Angstroms)
 Number     Number       Type             X           Y           Z
 ---------------------------------------------------------------------
      1          7           0        6.045806   -1.188313   -0.845324
      2          6           0        7.373388   -0.543701   -0.845231
      3          6           0        3.880022   -1.550759   -0.969158
      4          7           0        4.464233   -2.779470   -0.697685
      5          6           0        5.745654   -2.511931   -0.633949
      6          1           0        6.523722   -3.249146   -0.433780
      7          7           0        2.300820    0.144452   -1.411123
      8          6           0        3.336557    0.987716   -1.472136
      9          1           0        3.079706    2.025379   -1.680772
     10          7           0        4.635861    0.742770   -1.314867
     11          6           0        4.842311   -0.560441   -1.062971
     12          6           0        2.541563   -1.160165   -1.155984
     13          7           0        1.508972   -2.003471   -1.094689
     14          1           0        1.640425   -2.977747   -0.908370
     15          1           0        0.569298   -1.690319   -1.232844
     16          1           0        7.946205   -0.957074   -1.553173
     17          1           0        7.270365    0.433306   -1.029560
     18          1           0        7.806966   -0.668910    0.047141
     19          7           0        3.961729    1.644871    1.343426
     20          6           0        2.596880    1.690817    1.191358
     21          6           0        4.899040    2.723279    0.970371
     22          7           0       -0.261987    3.386501    0.184746
     23          1           0       -1.247537    3.221171    0.160328
     24          1           0        0.058988    4.267748   -0.163251
     25          7           0        1.888446    2.720554    0.679692
     26          6           0        0.591631    2.468352    0.662474
     27          7           0        0.029582    1.297890    1.111511
     28          1           0       -0.971964    1.192001    1.059975
     29          6           0        0.739203    0.225023    1.641845
     30          8           0        0.135155   -0.786868    2.018603
     31          6           0        2.133705    0.481185    1.666828
     32          7           0        3.186590   -0.308271    2.108516
     33          6           0        4.248450    0.421231    1.897627
     34          1           0        5.268931    0.113862    2.128775
     35          1           0        5.544691    2.384376    0.286929
     36          1           0        4.385656    3.491470    0.590128
     37          1           0        5.399943    3.026771    1.780184
     38          1           0       -5.928907    1.031841   -0.060639
     39          1           0       -6.114561    1.458497    1.638821
     40          1           0       -4.708929    2.025555    0.736585
     41          1           0       -5.164308   -3.243220    2.009579
     42          6           0       -4.636183   -2.306311    1.832051
     43          8           0       -2.493451   -3.213280    2.293826
     44          6           0       -3.213131   -2.266299    1.977468
     45          1           0       -1.640870   -0.965395    1.822623
     46          7           0       -2.644645   -1.033088    1.729968
     47          8           0       -2.703372    1.167248    1.171152
     48          6           0       -3.294772    0.120534    1.369329
     49          1           0       -6.380093   -1.175173    1.357567
     50          6           0       -5.298183   -1.197530    1.481374
     51          6           0       -5.403131    1.208537    0.865864
     52          7           0       -4.665438    0.001714    1.249420
     53          1           0       -4.881411    3.186379   -2.769297
     54          1           0       -3.679296    3.334270   -1.676068
     55          1           0       -5.221849    3.155245   -1.173500
     56          1           0       -1.854303   -3.452297   -1.416428
     57          1           0       -3.511433   -3.246763   -1.765399
     58          7           0       -2.622974   -2.830819   -1.568299
     59          6           0       -2.471071   -1.506143   -1.510781
     60          6           0       -3.206256    0.754016   -1.624376
     61          7           0       -2.001367    1.284636   -1.357719
     62          1           0       -0.087186    0.668357   -0.961824
     63          6           0       -1.096354    0.323684   -1.183263
     64          7           0       -1.246529   -1.003627   -1.240478
     65          1           0       -6.367970    0.715754   -2.298362
     66          6           0       -5.330396    0.459466   -2.082291
     67          7           0       -4.865119   -0.763425   -2.006456
     68          6           0       -3.519400   -0.590960   -1.716615
     69          6           0       -4.554729    2.892924   -1.870871
     70          7           0       -4.381084    1.427400   -1.861751
 ---------------------------------------------------------------------

 SCF Done:  E(RwB97XD) =  -2048.73097750     A.U. after   15 cycles

 The electronic state is 1-A.
 Alpha  occ. eigenvalues --  -19.25456 -19.21648 -19.20435 -14.52407 -14.52172
 Alpha  occ. eigenvalues --  -14.49440 -14.48149 -14.47864 -14.47503 -14.46565
 Alpha  occ. eigenvalues --  -14.46081 -14.45552 -14.44092 -14.44050 -14.43001
 Alpha  occ. eigenvalues --  -14.41958 -14.41701 -14.41542 -14.40771 -14.40519
 Alpha  occ. eigenvalues --  -10.45081 -10.40869 -10.39771 -10.39744 -10.38032
 Alpha  occ. eigenvalues --  -10.37954 -10.37432 -10.37131 -10.36072 -10.35396
 Alpha  occ. eigenvalues --  -10.35133 -10.34619 -10.34338 -10.33956 -10.33822
 Alpha  occ. eigenvalues --  -10.33572 -10.32963 -10.32543 -10.31787 -10.30687
 Alpha  occ. eigenvalues --  -10.29759 -10.29066 -10.27656  -1.19236  -1.15266
 Alpha  occ. eigenvalues --   -1.12975  -1.12682  -1.11970  -1.10218  -1.09211
 Alpha  occ. eigenvalues --   -1.08921  -1.08253  -1.05673  -1.04607  -1.02193
 Alpha  occ. eigenvalues --   -1.01162  -1.01036  -0.99316  -0.98289  -0.97611
 Alpha  occ. eigenvalues --   -0.96635  -0.96110  -0.93356  -0.90723  -0.87739
 Alpha  occ. eigenvalues --   -0.86130  -0.84608  -0.83674  -0.83576  -0.82989
 Alpha  occ. eigenvalues --   -0.81796  -0.78554  -0.77049  -0.74889  -0.74230
 Alpha  occ. eigenvalues --   -0.73561  -0.73310  -0.73060  -0.71684  -0.70416
 Alpha  occ. eigenvalues --   -0.67025  -0.66972  -0.66727  -0.66245  -0.64289
 Alpha  occ. eigenvalues --   -0.64263  -0.63472  -0.63323  -0.62508  -0.61629
 Alpha  occ. eigenvalues --   -0.61384  -0.60939  -0.60584  -0.59548  -0.59252
 Alpha  occ. eigenvalues --   -0.58178  -0.57954  -0.57513  -0.57205  -0.56407
 Alpha  occ. eigenvalues --   -0.56042  -0.55803  -0.55420  -0.54548  -0.54289
 Alpha  occ. eigenvalues --   -0.53965  -0.53552  -0.53199  -0.53082  -0.52633
 Alpha  occ. eigenvalues --   -0.52555  -0.52352  -0.52259  -0.51338  -0.50769
 Alpha  occ. eigenvalues --   -0.49845  -0.49709  -0.49266  -0.49148  -0.48671
 Alpha  occ. eigenvalues --   -0.48458  -0.48322  -0.47993  -0.47591  -0.47104
 Alpha  occ. eigenvalues --   -0.46976  -0.45496  -0.45343  -0.44562  -0.43230
 Alpha  occ. eigenvalues --   -0.41644  -0.40778  -0.39272  -0.37888  -0.37700
 Alpha  occ. eigenvalues --   -0.37574  -0.37132  -0.36927  -0.35939  -0.34555
 Alpha  occ. eigenvalues --   -0.34248  -0.34020  -0.33981  -0.33276  -0.32871
 Alpha  occ. eigenvalues --   -0.32400  -0.32227  -0.31792  -0.31582  -0.31217
 Alpha  occ. eigenvalues --   -0.31045  -0.29469  -0.26206  -0.24938
 Alpha virt. eigenvalues --    0.03318   0.04126   0.06935   0.07247   0.08223
 Alpha virt. eigenvalues --    0.08721   0.10050   0.10645   0.10991   0.12101
 Alpha virt. eigenvalues --    0.13205   0.13733   0.14089   0.14262   0.14766

 Mulliken charges:
               1
     1  N   -0.310500
     2  C    0.176027
     3  C    0.073343
     4  N   -0.256067
     5  C    0.131913
     6  H    0.027951
     7  N   -0.280898
     8  C    0.142105
     9  H    0.014352
    10  N   -0.285063
    11  C    0.223862
    12  C    0.094977
    13  N   -0.049239
    14  H    0.109335
    15  H    0.087331
    16  H    0.028948
    17  H    0.035971
    18  H    0.025228
    19  N   -0.276477
    20  C    0.208040
    21  C    0.183818
    22  N   -0.099493
    23  H    0.113579
    24  H    0.113000
    25  N   -0.291055
    26  C    0.207597
    27  N   -0.144700
    28  H    0.130445
    29  C    0.166831
    30  O   -0.323558
    31  C    0.008049
    32  N   -0.219029
    33  C    0.121729
    34  H    0.015459
    35  H    0.018264
    36  H    0.025353
    37  H    0.018110
    38  H    0.036797
    39  H    0.059144
    40  H    0.070261
    41  H    0.027393
    42  C   -0.111964
    43  O   -0.267057
    44  C    0.173498
    45  H    0.131978
    46  N   -0.123687
    47  O   -0.332759
    48  C    0.334568
    49  H    0.044523
    50  C    0.176962
    51  C    0.051516
    52  N   -0.277986
    53  H    0.037025
    54  H    0.036852
    55  H    0.019681
    56  H    0.123474
    57  H    0.119505
    58  N   -0.061721
    59  C    0.111885
    60  C    0.217374
    61  N   -0.266267
    62  H    0.050309
    63  C    0.137912
    64  N   -0.301349
    65  H    0.041322
    66  C    0.100407
    67  N   -0.244300
    68  C    0.032752
    69  C    0.180279
    70  N   -0.293863
 Sum of Mulliken charges =  -0.00000

 Dipole moment (field-independent basis, Debye):
    X=             -5.9196    Y=              6.2348    Z=             -4.2503  Tot=              9.5906
 Quadrupole moment (field-independent basis, Debye-Ang):
   XX=           -146.0685   YY=           -227.4749   ZZ=           -259.7154
   XY=            -11.2787   XZ=              5.1100   YZ=             10.9524

 Normal termination of Gaussian 16 at Sat Jan 20 14:17:53 2018.
