 Gaussian 16, Revision A.03,
 Gaussian 16:  EM64L-G16RevA.03 25-Dec-2016

 ---------------------------------------
 #p wb97xd/cc-pvdz sp scf=(maxcycles=20)
 ---------------------------------------

 ------------------
 Base pair stacking
 ------------------
 Symbolic Z-matrix:
 Charge =  0 Multiplicity = 1

                         Standard orientation:
 ---------------------------------------------------------------------
 Center     Atomic      Atomic             Coordinates (Angstroms)
 Number     Number       Type             X           Y           Z
 ---------------------------------------------------------------------
      1          7           0       -5.177351   -1.823840    1.150161
      2          6           0       -6.509667   -1.393832    1.617100
      3          6           0       -3.006495   -1.988341    0.837714
      4          7           0       -3.586983   -2.977547    0.057173
      5          6           0       -4.871613   -2.838840    0.276648
      6          1           0       -5.648178   -3.455624   -0.176633
      7          7           0       -1.431108   -0.581491    1.887402
      8          6           0       -2.471846    0.019189    2.473596
      9          1           0       -2.218527    0.841711    3.141095
     10          7           0       -3.772412   -0.242404    2.359589
     11          6           0       -3.974213   -1.269088    1.517197
     12          6           0       -1.667261   -1.611142    1.045302
     13          7           0       -0.629674   -2.212025    0.459190
     14          1           0       -0.757617   -2.978325   -0.171387
     15          1           0        0.310400   -1.916856    0.630310
     16          1           0       -6.962194   -2.153905    2.083677
     17          1           0       -6.410216   -0.626952    2.250454
     18          1           0       -7.063190   -1.108200    0.834784
     19          7           0       -4.851828    1.873420   -0.743085
     20          6           0       -3.481232    1.970614   -0.735148
     21          6           0       -5.781497    2.867803   -0.170696
     22          7           0       -0.593613    3.703277    0.114152
     23          1           0        0.394015    3.583671    0.016541
     24          1           0       -0.906623    4.533215    0.576682
     25          7           0       -2.759298    2.982697   -0.207365
     26          6           0       -1.460119    2.792192   -0.353840
     27          7           0       -0.908120    1.695181   -0.969758
     28          1           0        0.096182    1.633034   -1.036617
     29          6           0       -1.631689    0.641821   -1.519988
     30          8           0       -1.035886   -0.301975   -2.053848
     31          6           0       -3.028905    0.832284   -1.370297
     32          7           0       -4.094099    0.036472   -1.768967
     33          6           0       -5.152449    0.692431   -1.376757
     34          1           0       -6.180070    0.358765   -1.524820
     35          1           0       -6.333643    2.438215    0.543017
     36          1           0       -5.258104    3.622233    0.223216
     37          1           0       -6.380703    3.218781   -0.889435
     38          1           0        5.149726    1.609473   -0.476374
     39          1           0        5.128372    2.195983   -2.137759
     40          1           0        3.811921    2.611591   -1.039760
     41          1           0        4.319999   -2.493177   -2.848378
     42          6           0        3.780163   -1.602385   -2.526973
     43          8           0        1.634882   -2.565346   -2.839339
     44          6           0        2.349275   -1.617446   -2.513897
     45          1           0        0.756362   -0.412394   -2.068017
     46          7           0        1.766040   -0.440134   -2.090779
     47          8           0        1.804062    1.701149   -1.335361
     48          6           0        2.408551    0.705998   -1.694431
     49          1           0        5.522393   -0.436622   -2.137826
     50          6           0        4.435034   -0.499387   -2.146005
     51          6           0        4.517557    1.843661   -1.319930
     52          7           0        3.787528    0.642471   -1.734587
     53          1           0        5.778409    2.088868    3.778013
     54          1           0        4.427695    2.634853    3.043446
     55          1           0        5.886549    2.875099    2.351982
     56          1           0        2.786371   -3.298849   -0.355470
     57          1           0        4.469635   -3.130409   -0.135574
     58          7           0        3.550125   -2.759710   -0.000300
     59          6           0        3.352313   -1.597921    0.626040
     60          6           0        4.028852    0.377308    1.767299
     61          7           0        2.782942    0.850708    1.934646
     62          1           0        0.850846    0.324172    1.498337
     63          6           0        1.891146    0.015066    1.406167
     64          7           0        2.087269   -1.149001    0.778432
     65          1           0        7.254368    0.321564    1.979751
     66          6           0        6.204557    0.104282    1.780661
     67          7           0        5.769689   -0.963967    1.158243
     68          6           0        4.391749   -0.803389    1.142971
     69          6           0        5.334749    2.241980    2.894991
     70          7           0        5.205122    0.959081    2.177109
 ---------------------------------------------------------------------

 SCF Done:  E(RwB97XD) =  -2048.74792546     A.U. after   15 cycles

 The electronic state is 1-A.
 Alpha  occ. eigenvalues --  -19.25555 -19.22153 -19.20705 -14.52477 -14.52059
 Alpha  occ. eigenvalues --  -14.49018 -14.48514 -14.47795 -14.47599 -14.46945
 Alpha  occ. eigenvalues --  -14.46754 -14.45460 -14.44309 -14.44301 -14.42213
 Alpha  occ. eigenvalues --  -14.42102 -14.41194 -14.40945 -14.40940 -14.40355
 Alpha  occ. eigenvalues --  -10.45130 -10.41333 -10.40115 -10.39785 -10.38342
 Alpha  occ. eigenvalues --  -10.37974 -10.37175 -10.37116 -10.35783 -10.35390
 Alpha  occ. eigenvalues --  -10.34954 -10.34544 -10.33916 -10.33731 -10.33668
 Alpha  occ. eigenvalues --  -10.33206 -10.33092 -10.32659 -10.31123 -10.31072
 Alpha  occ. eigenvalues --  -10.30875 -10.28341 -10.28307  -1.19140  -1.15224
 Alpha  occ. eigenvalues --   -1.13306  -1.13098  -1.11068  -1.10778  -1.09297
 Alpha  occ. eigenvalues --   -1.08956  -1.08654  -1.05017  -1.04730  -1.02300
 Alpha  occ. eigenvalues --   -1.00953  -1.00369  -0.99831  -0.98664  -0.96897
 Alpha  occ. eigenvalues --   -0.96798  -0.96632  -0.92695  -0.90732  -0.87612
 Alpha  occ. eigenvalues --   -0.85892  -0.84314  -0.83803  -0.83386  -0.82699
 Alpha  occ. eigenvalues --   -0.82236  -0.78563  -0.76989  -0.74804  -0.74788
 Alpha  occ. eigenvalues --   -0.73736  -0.73143  -0.72786  -0.70963  -0.70332
 Alpha  occ. eigenvalues --   -0.67520  -0.66775  -0.66258  -0.66173  -0.64484
 Alpha  occ. eigenvalues --   -0.64168  -0.63740  -0.62718  -0.62622  -0.61913
 Alpha  occ. eigenvalues --   -0.60815  -0.60452  -0.60298  -0.59412  -0.59143
 Alpha  occ. eigenvalues --   -0.58876  -0.58474  -0.57052  -0.56499  -0.56139
 Alpha  occ. eigenvalues --   -0.55862  -0.55467  -0.55187  -0.54275  -0.54052
 Alpha  occ. eigenvalues --   -0.53744  -0.53694  -0.53569  -0.53423  -0.53087
 Alpha  occ. eigenvalues --   -0.52760  -0.52218  -0.51715  -0.50671  -0.50312
 Alpha  occ. eigenvalues --   -0.50247  -0.49873  -0.49437  -0.49039  -0.48967
 Alpha  occ. eigenvalues --   -0.48814  -0.48533  -0.48283  -0.47839  -0.47385
 Alpha  occ. eigenvalues --   -0.46865  -0.46014  -0.45278  -0.44699  -0.42912
 Alpha  occ. eigenvalues --   -0.40987  -0.40689  -0.39213  -0.38031  -0.37525
 Alpha  occ. eigenvalues --   -0.37404  -0.37331  -0.36988  -0.36099  -0.34551
 Alpha  occ. eigenvalues --   -0.34337  -0.34020  -0.33381  -0.33315  -0.33258
 Alpha  occ. eigenvalues --   -0.32822  -0.32532  -0.32048  -0.31953  -0.30801
 Alpha  occ. eigenvalues --   -0.30405  -0.29372  -0.26002  -0.25298
 Alpha virt. eigenvalues --    0.03217   0.04087   0.07242   0.07930   0.08588
 Alpha virt. eigenvalues --    0.09063   0.09589   0.10440   0.11068   0.12218
 Alpha virt. eigenvalues --    0.12938   0.13440   0.14363   0.14463   0.15024

 Mulliken charges:
               1
     1  N   -0.306683
     2  C    0.179711
     3  C    0.060355
     4  N   -0.250278
     5  C    0.140420
     6  H    0.025052
     7  N   -0.294235
     8  C    0.133770
     9  H    0.010291
    10  N   -0.287216
    11  C    0.236355
    12  C    0.086124
    13  N   -0.046820
    14  H    0.115325
    15  H    0.084100
    16  H    0.026602
    17  H    0.032650
    18  H    0.016724
    19  N   -0.307310
    20  C    0.261909
    21  C    0.183030
    22  N   -0.124341
    23  H    0.118579
    24  H    0.118587
    25  N   -0.311296
    26  C    0.249215
    27  N   -0.145193
    28  H    0.118658
    29  C    0.188990
    30  O   -0.322280
    31  C   -0.017380
    32  N   -0.218179
    33  C    0.115596
    34  H    0.020731
    35  H    0.024951
    36  H    0.031149
    37  H    0.023956
    38  H    0.053711
    39  H    0.059737
    40  H    0.075057
    41  H    0.019786
    42  C   -0.100286
    43  O   -0.273070
    44  C    0.159294
    45  H    0.129288
    46  N   -0.107986
    47  O   -0.348053
    48  C    0.337476
    49  H    0.044663
    50  C    0.166529
    51  C    0.044623
    52  N   -0.277562
    53  H    0.034785
    54  H    0.041943
    55  H    0.024881
    56  H    0.126206
    57  H    0.114946
    58  N   -0.048562
    59  C    0.080114
    60  C    0.223716
    61  N   -0.265369
    62  H    0.030712
    63  C    0.162924
    64  N   -0.302856
    65  H    0.035889
    66  C    0.122890
    67  N   -0.255609
    68  C    0.039676
    69  C    0.181608
    70  N   -0.302723
 Sum of Mulliken charges =  -0.00000

 Dipole moment (field-independent basis, Debye):
    X=              6.2907    Y=              6.7692    Z=              3.4149  Tot=              9.8517
 Quadrupole moment (field-independent basis, Debye-Ang):
   XX=           -149.2654   YY=           -223.5671   ZZ=           -257.7348
   XY=              7.0091   XZ=             -2.7024   YZ=             -0.8621

 Normal termination of Gaussian 16 at Sat Jan 20 11:18:35 2018.
