 Gaussian 16, Revision A.03,
 Gaussian 16:  EM64L-G16RevA.03 25-Dec-2016

 ---------------------------------------
 #p wb97xd/cc-pvdz sp scf=(maxcycles=20)
 ---------------------------------------

 ------------------
 Base pair stacking
 ------------------
 Symbolic Z-matrix:
 Charge =  0 Multiplicity = 1

                         Standard orientation:
 ---------------------------------------------------------------------
 Center     Atomic      Atomic             Coordinates (Angstroms)
 Number     Number       Type             X           Y           Z
 ---------------------------------------------------------------------
      1          7           0        4.887010   -1.179622   -1.618854
      2          6           0        6.228814   -0.572638   -1.714554
      3          6           0        2.709360   -1.472202   -1.521285
      4          7           0        3.274996   -2.736054   -1.434901
      5          6           0        4.564314   -2.509197   -1.497144
      6          1           0        5.332407   -3.282167   -1.458496
      7          7           0        1.153670    0.298023   -1.616620
      8          6           0        2.206084    1.116107   -1.720199
      9          1           0        1.965557    2.175328   -1.800444
     10          7           0        3.504911    0.823566   -1.739454
     11          6           0        3.690531   -0.502741   -1.635094
     12          6           0        1.373652   -1.030883   -1.513198
     13          7           0        0.324392   -1.849119   -1.409711
     14          1           0        0.440215   -2.839882   -1.330985
     15          1           0       -0.612712   -1.499876   -1.407348
     16          1           0        6.701472   -0.930743   -2.519866
     17          1           0        6.141550    0.419906   -1.794386
     18          1           0        6.756454   -0.794270   -0.894511
     19          7           0        5.147648    1.324492    0.981130
     20          6           0        3.776983    1.420213    0.994796
     21          6           0        6.075422    2.409108    0.602275
     22          7           0        0.886467    3.278383    0.490986
     23          1           0       -0.100861    3.141763    0.566931
     24          1           0        1.197936    4.180388    0.190824
     25          7           0        3.053276    2.512396    0.667045
     26          6           0        1.754562    2.296724    0.778509
     27          7           0        1.204601    1.103484    1.180056
     28          1           0        0.200501    1.029037    1.236555
     29          6           0        1.930026   -0.033445    1.522130
     30          8           0        1.335997   -1.060867    1.871782
     31          6           0        3.326777    0.182890    1.407274
     32          7           0        4.393323   -0.672414    1.647735
     33          6           0        5.450390    0.046206    1.382378
     34          1           0        6.478526   -0.308316    1.463038
     35          1           0        6.625944    2.120861   -0.180439
     36          1           0        5.550702    3.223352    0.357447
     37          1           0        6.676295    2.620227    1.372462
     38          1           0       -4.854434    1.105950    0.693957
     39          1           0       -4.829120    1.371890    2.435595
     40          1           0       -3.515646    1.986425    1.431362
     41          1           0       -4.016893   -3.366746    2.256047
     42          6           0       -3.478268   -2.431112    2.105353
     43          8           0       -1.331772   -3.433533    2.227208
     44          6           0       -2.047407   -2.442177    2.086238
     45          1           0       -0.456170   -1.173616    1.869410
     46          7           0       -1.465762   -1.206037    1.889030
     47          8           0       -1.506642    1.038615    1.546877
     48          6           0       -2.109785   -0.006630    1.715254
     49          1           0       -5.221992   -1.214767    1.944973
     50          6           0       -4.134593   -1.276966    1.938655
     51          6           0       -4.220230    1.179049    1.564882
     52          7           0       -3.488627   -0.077788    1.746167
     53          1           0       -6.019472    3.641621   -1.837391
     54          1           0       -4.695849    3.652493   -0.883449
     55          1           0       -6.176538    3.466042   -0.222489
     56          1           0       -3.104777   -3.172606   -1.468134
     57          1           0       -4.782190   -2.891580   -1.600186
     58          7           0       -3.862308   -2.519695   -1.470837
     59          6           0       -3.656059   -1.211064   -1.309206
     60          6           0       -4.315515    1.067844   -1.126395
     61          7           0       -3.069315    1.538939   -0.954691
     62          1           0       -1.146520    0.838036   -0.844328
     63          6           0       -2.186386    0.542533   -0.977029
     64          7           0       -2.390968   -0.768792   -1.138796
     65          1           0       -7.532732    1.176546   -1.426237
     66          6           0       -6.487448    0.873855   -1.357760
     67          7           0       -6.061993   -0.362312   -1.450361
     68          6           0       -4.686544   -0.253458   -1.305355
     69          6           0       -5.603479    3.254777   -1.014415
     70          7           0       -5.484109    1.791152   -1.161284
 ---------------------------------------------------------------------

 SCF Done:  E(RwB97XD) =  -2048.72063465     A.U. after   15 cycles

 The electronic state is 1-A.
 Alpha  occ. eigenvalues --  -19.25095 -19.21374 -19.20549 -14.52880 -14.51672
 Alpha  occ. eigenvalues --  -14.49027 -14.48780 -14.48574 -14.47190 -14.46610
 Alpha  occ. eigenvalues --  -14.46506 -14.45907 -14.44753 -14.44583 -14.42974
 Alpha  occ. eigenvalues --  -14.41735 -14.41322 -14.41265 -14.41202 -14.40798
 Alpha  occ. eigenvalues --  -10.44750 -10.40982 -10.40470 -10.39478 -10.38411
 Alpha  occ. eigenvalues --  -10.38152 -10.37649 -10.37080 -10.36347 -10.35919
 Alpha  occ. eigenvalues --  -10.34397 -10.34368 -10.34049 -10.33732 -10.33531
 Alpha  occ. eigenvalues --  -10.33510 -10.33348 -10.33084 -10.31318 -10.31193
 Alpha  occ. eigenvalues --  -10.30456 -10.28687 -10.28184  -1.18872  -1.15902
 Alpha  occ. eigenvalues --   -1.13170  -1.12399  -1.11383  -1.10713  -1.09810
 Alpha  occ. eigenvalues --   -1.08624  -1.08474  -1.05528  -1.05328  -1.01803
 Alpha  occ. eigenvalues --   -1.01481  -1.00945  -0.99633  -0.98485  -0.97440
 Alpha  occ. eigenvalues --   -0.97059  -0.96738  -0.93228  -0.90339  -0.88262
 Alpha  occ. eigenvalues --   -0.86401  -0.84408  -0.84036  -0.82887  -0.82685
 Alpha  occ. eigenvalues --   -0.82576  -0.78196  -0.77558  -0.75399  -0.74694
 Alpha  occ. eigenvalues --   -0.73610  -0.73190  -0.72698  -0.71421  -0.70906
 Alpha  occ. eigenvalues --   -0.67398  -0.67264  -0.66644  -0.65998  -0.64766
 Alpha  occ. eigenvalues --   -0.64326  -0.63641  -0.63120  -0.62555  -0.61946
 Alpha  occ. eigenvalues --   -0.61768  -0.60993  -0.60835  -0.59980  -0.59001
 Alpha  occ. eigenvalues --   -0.58655  -0.58353  -0.57909  -0.56948  -0.56159
 Alpha  occ. eigenvalues --   -0.55810  -0.55755  -0.55570  -0.54640  -0.54347
 Alpha  occ. eigenvalues --   -0.54153  -0.53962  -0.53375  -0.53174  -0.52928
 Alpha  occ. eigenvalues --   -0.52344  -0.51987  -0.51707  -0.50866  -0.50513
 Alpha  occ. eigenvalues --   -0.50172  -0.50015  -0.49364  -0.49238  -0.48919
 Alpha  occ. eigenvalues --   -0.48549  -0.48204  -0.48115  -0.47875  -0.47254
 Alpha  occ. eigenvalues --   -0.47024  -0.45684  -0.45405  -0.44911  -0.42204
 Alpha  occ. eigenvalues --   -0.41351  -0.41154  -0.38890  -0.38125  -0.37977
 Alpha  occ. eigenvalues --   -0.37801  -0.37164  -0.36794  -0.35731  -0.35144
 Alpha  occ. eigenvalues --   -0.34720  -0.34401  -0.33781  -0.33331  -0.32896
 Alpha  occ. eigenvalues --   -0.32701  -0.32460  -0.31856  -0.31196  -0.30935
 Alpha  occ. eigenvalues --   -0.30535  -0.30341  -0.26277  -0.25263
 Alpha virt. eigenvalues --    0.03379   0.03781   0.06607   0.07134   0.08601
 Alpha virt. eigenvalues --    0.09149   0.09769   0.09949   0.11056   0.12691
 Alpha virt. eigenvalues --    0.12870   0.13746   0.14165   0.14321   0.14590

 Mulliken charges:
               1
     1  N   -0.301658
     2  C    0.181091
     3  C    0.070696
     4  N   -0.257679
     5  C    0.145485
     6  H    0.027021
     7  N   -0.280931
     8  C    0.131526
     9  H    0.007931
    10  N   -0.270163
    11  C    0.231167
    12  C    0.071022
    13  N   -0.053924
    14  H    0.111722
    15  H    0.083384
    16  H    0.028114
    17  H    0.029744
    18  H    0.013752
    19  N   -0.294377
    20  C    0.252716
    21  C    0.187879
    22  N   -0.104985
    23  H    0.121723
    24  H    0.117845
    25  N   -0.274791
    26  C    0.171720
    27  N   -0.104215
    28  H    0.117066
    29  C    0.164598
    30  O   -0.320300
    31  C   -0.003259
    32  N   -0.213031
    33  C    0.092481
    34  H    0.026222
    35  H    0.012079
    36  H    0.033297
    37  H    0.024232
    38  H    0.054095
    39  H    0.045658
    40  H    0.079543
    41  H    0.024051
    42  C   -0.099394
    43  O   -0.268276
    44  C    0.172917
    45  H    0.129668
    46  N   -0.116449
    47  O   -0.343019
    48  C    0.325982
    49  H    0.045308
    50  C    0.157960
    51  C    0.061477
    52  N   -0.275618
    53  H    0.037770
    54  H    0.041888
    55  H    0.028307
    56  H    0.122602
    57  H    0.119600
    58  N   -0.059150
    59  C    0.102744
    60  C    0.180736
    61  N   -0.255713
    62  H    0.009822
    63  C    0.187164
    64  N   -0.307931
    65  H    0.036828
    66  C    0.123937
    67  N   -0.247404
    68  C    0.031620
    69  C    0.179479
    70  N   -0.301403
 Sum of Mulliken charges =  -0.00000

 Dipole moment (field-independent basis, Debye):
    X=             -6.2881    Y=              7.2956    Z=             -2.8660  Tot=             10.0489
 Quadrupole moment (field-independent basis, Debye-Ang):
   XX=           -150.8622   YY=           -229.5447   ZZ=           -256.9445
   XY=             -2.8690   XZ=             -9.3632   YZ=             15.1403

 Normal termination of Gaussian 16 at Sat Jan 20 16:07:21 2018.
