 Gaussian 16, Revision A.03,
 Gaussian 16:  EM64L-G16RevA.03 25-Dec-2016

 ---------------------------------------
 #p wb97xd/cc-pvdz sp scf=(maxcycles=20)
 ---------------------------------------

 ------------------
 Base pair stacking
 ------------------
 Symbolic Z-matrix:
 Charge =  0 Multiplicity = 1

                         Standard orientation:
 ---------------------------------------------------------------------
 Center     Atomic      Atomic             Coordinates (Angstroms)
 Number     Number       Type             X           Y           Z
 ---------------------------------------------------------------------
      1          7           0       -6.918489   -1.102888    0.237903
      2          6           0       -8.245434   -0.488413    0.437022
      3          6           0       -4.759573   -1.518870    0.295508
      4          7           0       -5.330759   -2.535462   -0.456171
      5          6           0       -6.608562   -2.244162   -0.460797
      6          1           0       -7.376857   -2.832874   -0.962874
      7          7           0       -3.201884   -0.154717    1.424937
      8          6           0       -4.239991    0.614318    1.769169
      9          1           0       -3.993050    1.484594    2.375723
     10          7           0       -5.531275    0.470396    1.478015
     11          6           0       -5.725796   -0.628353    0.730123
     12          6           0       -3.430531   -1.252955    0.672173
     13          7           0       -2.395554   -2.021867    0.327530
     14          1           0       -2.518204   -2.844434   -0.228852
     15          1           0       -1.462823   -1.802046    0.613580
     16          1           0       -8.847300   -1.135850    0.904750
     17          1           0       -8.151116    0.337879    0.991527
     18          1           0       -8.640829   -0.249316   -0.449819
     19          7           0       -2.948206    2.192892   -1.437396
     20          6           0       -1.591777    2.154354   -1.221387
     21          6           0       -3.829164    3.337908   -1.131517
     22          7           0        1.322334    3.685450   -0.114372
     23          1           0        2.292759    3.457565   -0.039626
     24          1           0        1.043984    4.593456    0.199879
     25          7           0       -0.841873    3.148020   -0.697618
     26          6           0        0.433453    2.813246   -0.613453
     27          7           0        0.937850    1.598812   -1.011225
     28          1           0        1.926852    1.429840   -0.909841
     29          6           0        0.184808    0.561754   -1.552803
     30          8           0        0.738096   -0.495502   -1.879626
     31          6           0       -1.187282    0.906589   -1.649471
     32          7           0       -2.268032    0.176467   -2.124671
     33          6           0       -3.288475    0.977609   -1.979580
     34          1           0       -4.315099    0.731310   -2.252809
     35          1           0       -4.526538    3.057424   -0.472875
     36          1           0       -3.284729    4.080129   -0.742968
     37          1           0       -4.271128    3.653967   -1.970312
     38          1           0        6.805526    0.976939    0.448893
     39          1           0        7.097120    1.350796   -1.248120
     40          1           0        5.691401    2.028230   -0.425691
     41          1           0        5.859289   -3.287331   -1.567842
     42          6           0        5.385985   -2.314433   -1.434843
     43          8           0        3.212140   -3.092031   -1.979668
     44          6           0        3.976852   -2.186228   -1.648727
     45          1           0        2.487650   -0.783452   -1.595585
     46          7           0        3.479480   -0.913483   -1.453809
     47          8           0        3.656210    1.290989   -0.937799
     48          6           0        4.186358    0.203969   -1.086177
     49          1           0        7.176377   -1.287200   -0.900904
     50          6           0        6.102212   -1.242700   -1.075669
     51          6           0        6.335863    1.165383   -0.505033
     52          7           0        5.539284   -0.000064   -0.898649
     53          1           0        3.913987    2.004826    4.142125
     54          1           0        2.758997    2.585716    3.146796
     55          1           0        4.321557    2.592420    2.675143
     56          1           0        0.952348   -3.534159    0.190694
     57          1           0        2.593086   -3.506821    0.656887
     58          7           0        1.713392   -3.033078    0.602843
     59          6           0        1.562928   -1.788401    1.060365
     60          6           0        2.290751    0.237167    2.074809
     61          7           0        1.097755    0.848568    1.989055
     62          1           0       -0.797477    0.465286    1.309480
     63          6           0        0.201731    0.045789    1.418442
     64          7           0        0.350472   -1.201143    0.959528
     65          1           0        5.421204   -0.110206    2.804029
     66          6           0        4.393899   -0.245778    2.464617
     67          7           0        3.933282   -1.335084    1.899872
     68          6           0        2.600853   -1.042251    1.647646
     69          6           0        3.625806    2.089676    3.188315
     70          7           0        3.453931    0.746372    2.601796
 ---------------------------------------------------------------------

 SCF Done:  E(RwB97XD) =  -2048.75026185     A.U. after   15 cycles

 The electronic state is 1-A.
 Alpha  occ. eigenvalues --  -19.26074 -19.22194 -19.20694 -14.52521 -14.51247
 Alpha  occ. eigenvalues --  -14.49458 -14.48637 -14.47961 -14.46932 -14.46816
 Alpha  occ. eigenvalues --  -14.46016 -14.44250 -14.42683 -14.42588 -14.42497
 Alpha  occ. eigenvalues --  -14.42101 -14.42082 -14.41591 -14.40785 -14.40712
 Alpha  occ. eigenvalues --  -10.45629 -10.41273 -10.40246 -10.38300 -10.38156
 Alpha  occ. eigenvalues --  -10.37701 -10.36854 -10.35938 -10.35753 -10.35725
 Alpha  occ. eigenvalues --  -10.34745 -10.34361 -10.34294 -10.34048 -10.33692
 Alpha  occ. eigenvalues --  -10.33213 -10.33207 -10.31563 -10.31150 -10.31003
 Alpha  occ. eigenvalues --  -10.30528 -10.29199 -10.28133  -1.19595  -1.13908
 Alpha  occ. eigenvalues --   -1.13270  -1.13215  -1.12043  -1.10551  -1.09419
 Alpha  occ. eigenvalues --   -1.08633  -1.07517  -1.05563  -1.03059  -1.02622
 Alpha  occ. eigenvalues --   -1.00952  -0.99850  -0.99656  -0.98561  -0.97574
 Alpha  occ. eigenvalues --   -0.96482  -0.95143  -0.93181  -0.91021  -0.86338
 Alpha  occ. eigenvalues --   -0.84818  -0.84582  -0.84061  -0.83915  -0.82930
 Alpha  occ. eigenvalues --   -0.82323  -0.78914  -0.75569  -0.74596  -0.73720
 Alpha  occ. eigenvalues --   -0.73473  -0.73452  -0.73294  -0.71660  -0.68921
 Alpha  occ. eigenvalues --   -0.67424  -0.66861  -0.66627  -0.65249  -0.64519
 Alpha  occ. eigenvalues --   -0.63763  -0.63289  -0.62717  -0.62700  -0.61775
 Alpha  occ. eigenvalues --   -0.60692  -0.60109  -0.59564  -0.59114  -0.58549
 Alpha  occ. eigenvalues --   -0.58425  -0.58193  -0.57078  -0.56997  -0.56471
 Alpha  occ. eigenvalues --   -0.56102  -0.55818  -0.54491  -0.54464  -0.54169
 Alpha  occ. eigenvalues --   -0.53647  -0.53538  -0.52915  -0.52728  -0.52619
 Alpha  occ. eigenvalues --   -0.52293  -0.52171  -0.51512  -0.51403  -0.50747
 Alpha  occ. eigenvalues --   -0.50173  -0.49623  -0.49553  -0.48941  -0.48764
 Alpha  occ. eigenvalues --   -0.48504  -0.48276  -0.47785  -0.47667  -0.47536
 Alpha  occ. eigenvalues --   -0.47429  -0.45587  -0.45233  -0.44019  -0.43216
 Alpha  occ. eigenvalues --   -0.41796  -0.39616  -0.39413  -0.37792  -0.37313
 Alpha  occ. eigenvalues --   -0.37217  -0.36788  -0.36155  -0.35499  -0.34451
 Alpha  occ. eigenvalues --   -0.34163  -0.34106  -0.33375  -0.33110  -0.32798
 Alpha  occ. eigenvalues --   -0.32634  -0.32276  -0.31997  -0.31896  -0.31577
 Alpha  occ. eigenvalues --   -0.30920  -0.28187  -0.26378  -0.25454
 Alpha virt. eigenvalues --    0.03101   0.05203   0.07381   0.08322   0.08643
 Alpha virt. eigenvalues --    0.09133   0.09674   0.10344   0.10730   0.11942
 Alpha virt. eigenvalues --    0.12895   0.13505   0.14515   0.14653   0.15834

 Mulliken charges:
               1
     1  N   -0.310595
     2  C    0.180515
     3  C    0.038363
     4  N   -0.255145
     5  C    0.130583
     6  H    0.028280
     7  N   -0.281751
     8  C    0.129956
     9  H    0.015814
    10  N   -0.291341
    11  C    0.230377
    12  C    0.104666
    13  N   -0.041382
    14  H    0.108666
    15  H    0.089009
    16  H    0.027636
    17  H    0.035103
    18  H    0.025030
    19  N   -0.304864
    20  C    0.249310
    21  C    0.180410
    22  N   -0.118246
    23  H    0.111360
    24  H    0.117336
    25  N   -0.304468
    26  C    0.240804
    27  N   -0.129084
    28  H    0.117543
    29  C    0.157093
    30  O   -0.323086
    31  C   -0.000522
    32  N   -0.225579
    33  C    0.125010
    34  H    0.028442
    35  H    0.030921
    36  H    0.027146
    37  H    0.022366
    38  H    0.051854
    39  H    0.063628
    40  H    0.073487
    41  H    0.029252
    42  C   -0.092755
    43  O   -0.278761
    44  C    0.170401
    45  H    0.137612
    46  N   -0.129585
    47  O   -0.350475
    48  C    0.351265
    49  H    0.046205
    50  C    0.177265
    51  C    0.038733
    52  N   -0.288049
    53  H    0.032014
    54  H    0.038956
    55  H    0.019053
    56  H    0.120757
    57  H    0.118593
    58  N   -0.040537
    59  C    0.109802
    60  C    0.239367
    61  N   -0.271847
    62  H    0.040246
    63  C    0.159142
    64  N   -0.301655
    65  H    0.026953
    66  C    0.119877
    67  N   -0.254096
    68  C    0.005581
    69  C    0.179287
    70  N   -0.307245
 Sum of Mulliken charges =  -0.00000

 Dipole moment (field-independent basis, Debye):
    X=              6.1683    Y=              5.9993    Z=              3.1901  Tot=              9.1769
 Quadrupole moment (field-independent basis, Debye-Ang):
   XX=           -140.3445   YY=           -225.6362   ZZ=           -254.2192
   XY=             11.4239   XZ=             17.5109   YZ=             -2.7513

 Normal termination of Gaussian 16 at Sat Jan 20 12:42:33 2018.
