 Gaussian 16, Revision A.03,
 Gaussian 16:  EM64L-G16RevA.03 25-Dec-2016

 ---------------------------------------
 #p wb97xd/cc-pvdz sp scf=(maxcycles=20)
 ---------------------------------------

 ------------------
 Base pair stacking
 ------------------
 Symbolic Z-matrix:
 Charge =  0 Multiplicity = 1

                         Standard orientation:
 ---------------------------------------------------------------------
 Center     Atomic      Atomic             Coordinates (Angstroms)
 Number     Number       Type             X           Y           Z
 ---------------------------------------------------------------------
      1          7           0        6.056357   -1.235368   -0.833887
      2          6           0        7.386688   -0.599616   -0.897478
      3          6           0        3.888142   -1.596174   -0.911285
      4          7           0        4.469051   -2.800639   -0.541782
      5          6           0        5.752070   -2.535062   -0.509941
      6          1           0        6.528428   -3.256717   -0.254153
      7          7           0        2.313008    0.063754   -1.482727
      8          6           0        3.351917    0.893767   -1.621788
      9          1           0        3.097984    1.911517   -1.914990
     10          7           0        4.651292    0.656452   -1.453829
     11          6           0        4.853980   -0.622015   -1.094850
     12          6           0        2.550019   -1.216010   -1.120647
     13          7           0        1.514273   -2.046063   -0.981323
     14          1           0        1.642904   -3.001901   -0.714771
     15          1           0        0.574945   -1.740951   -1.138541
     16          1           0        7.952326   -1.073809   -1.572292
     17          1           0        7.286512    0.358958   -1.162478
     18          1           0        7.826468   -0.651615   -0.000883
     19          7           0        3.947487    1.724156    1.337649
     20          6           0        2.581956    1.766102    1.190630
     21          6           0        4.880164    2.805697    0.962061
     22          7           0       -0.285693    3.453985    0.195952
     23          1           0       -1.270819    3.285703    0.175016
     24          1           0        0.031349    4.336492   -0.152470
     25          7           0        1.868535    2.794128    0.682440
     26          6           0        0.572442    2.538020    0.669776
     27          7           0        0.015574    1.365497    1.119887
     28          1           0       -0.985829    1.256622    1.071940
     29          6           0        0.730376    0.294333    1.646705
     30          8           0        0.130764   -0.719689    2.024822
     31          6           0        2.124179    0.554687    1.666779
     32          7           0        3.181048   -0.231962    2.103927
     33          6           0        4.239928    0.500917    1.889760
     34          1           0        5.262176    0.196437    2.116901
     35          1           0        5.524322    2.469311    0.275975
     36          1           0        4.363068    3.572654    0.584357
     37          1           0        5.383120    3.110018    1.770286
     38          1           0       -5.946352    1.082445   -0.030605
     39          1           0       -6.127042    1.507125    1.669884
     40          1           0       -4.726454    2.079164    0.762972
     41          1           0       -5.161265   -3.192014    2.033181
     42          6           0       -4.636624   -2.253361    1.854511
     43          8           0       -2.489494   -3.154243    2.307647
     44          6           0       -3.213169   -2.209178    1.994728
     45          1           0       -1.645425   -0.903409    1.835215
     46          7           0       -2.649319   -0.974051    1.746184
     47          8           0       -2.716730    1.226564    1.189448
     48          6           0       -3.304248    0.177898    1.388909
     49          1           0       -6.385665   -1.127101    1.387388
     50          6           0       -5.303255   -1.146300    1.507197
     51          6           0       -5.417710    1.259963    0.894105
     52          7           0       -4.674978    0.055048    1.273939
     53          1           0       -4.866025    3.016512   -3.039966
     54          1           0       -3.655039    3.249696   -1.971685
     55          1           0       -5.194498    3.121165   -1.444793
     56          1           0       -1.857607   -3.500075   -1.156073
     57          1           0       -3.516423   -3.316349   -1.509154
     58          7           0       -2.624696   -2.889742   -1.354073
     59          6           0       -2.466614   -1.565677   -1.409113
     60          6           0       -3.192823    0.680583   -1.706854
     61          7           0       -1.983649    1.225728   -1.494377
     62          1           0       -0.069220    0.635376   -1.061873
     63          6           0       -1.081524    0.278336   -1.246335
     64          7           0       -1.237891   -1.048323   -1.190770
     65          1           0       -6.359694    0.601555   -2.352523
     66          6           0       -5.321627    0.359171   -2.123144
     67          7           0       -4.861104   -0.855333   -1.948211
     68          6           0       -3.512480   -0.665820   -1.683557
     69          6           0       -4.533831    2.797897   -2.122440
     70          7           0       -4.366482    1.337473   -1.991507
 ---------------------------------------------------------------------

 SCF Done:  E(RwB97XD) =  -2048.74538124     A.U. after   15 cycles

 The electronic state is 1-A.
 Alpha  occ. eigenvalues --  -19.25543 -19.21711 -19.20454 -14.52353 -14.52206
 Alpha  occ. eigenvalues --  -14.49370 -14.48278 -14.47735 -14.47550 -14.46621
 Alpha  occ. eigenvalues --  -14.46204 -14.45429 -14.44015 -14.43957 -14.42889
 Alpha  occ. eigenvalues --  -14.41885 -14.41745 -14.41571 -14.40746 -14.40565
 Alpha  occ. eigenvalues --  -10.45170 -10.40917 -10.39838 -10.39646 -10.37991
 Alpha  occ. eigenvalues --  -10.37934 -10.37470 -10.37035 -10.36004 -10.35414
 Alpha  occ. eigenvalues --  -10.35242 -10.34559 -10.34193 -10.33917 -10.33902
 Alpha  occ. eigenvalues --  -10.33586 -10.33026 -10.32444 -10.31698 -10.30720
 Alpha  occ. eigenvalues --  -10.29995 -10.29017 -10.27724  -1.19242  -1.15140
 Alpha  occ. eigenvalues --   -1.12980  -1.12740  -1.11901  -1.10256  -1.09145
 Alpha  occ. eigenvalues --   -1.08902  -1.08286  -1.05605  -1.04489  -1.02240
 Alpha  occ. eigenvalues --   -1.01068  -1.00903  -0.99375  -0.98292  -0.97532
 Alpha  occ. eigenvalues --   -0.96524  -0.96170  -0.93282  -0.90752  -0.87592
 Alpha  occ. eigenvalues --   -0.85983  -0.84531  -0.83710  -0.83604  -0.82917
 Alpha  occ. eigenvalues --   -0.81915  -0.78584  -0.76909  -0.74724  -0.74261
 Alpha  occ. eigenvalues --   -0.73480  -0.73340  -0.73098  -0.71622  -0.70275
 Alpha  occ. eigenvalues --   -0.67056  -0.66894  -0.66594  -0.66278  -0.64247
 Alpha  occ. eigenvalues --   -0.64117  -0.63446  -0.63292  -0.62471  -0.61446
 Alpha  occ. eigenvalues --   -0.61389  -0.60856  -0.60428  -0.59429  -0.59238
 Alpha  occ. eigenvalues --   -0.58282  -0.57999  -0.57348  -0.57130  -0.56290
 Alpha  occ. eigenvalues --   -0.55975  -0.55743  -0.55316  -0.54574  -0.54137
 Alpha  occ. eigenvalues --   -0.53990  -0.53355  -0.53261  -0.53019  -0.52574
 Alpha  occ. eigenvalues --   -0.52549  -0.52360  -0.52347  -0.51292  -0.50759
 Alpha  occ. eigenvalues --   -0.49827  -0.49777  -0.49242  -0.49202  -0.48711
 Alpha  occ. eigenvalues --   -0.48445  -0.48373  -0.48034  -0.47507  -0.47157
 Alpha  occ. eigenvalues --   -0.47086  -0.45517  -0.45333  -0.44542  -0.43362
 Alpha  occ. eigenvalues --   -0.41666  -0.40635  -0.39255  -0.37790  -0.37599
 Alpha  occ. eigenvalues --   -0.37442  -0.37115  -0.36981  -0.35909  -0.34514
 Alpha  occ. eigenvalues --   -0.34204  -0.33992  -0.33940  -0.33424  -0.32929
 Alpha  occ. eigenvalues --   -0.32433  -0.32180  -0.31780  -0.31620  -0.31286
 Alpha  occ. eigenvalues --   -0.31032  -0.29494  -0.26204  -0.25026
 Alpha virt. eigenvalues --    0.03322   0.04208   0.07147   0.07315   0.08284
 Alpha virt. eigenvalues --    0.08834   0.10024   0.10645   0.10931   0.11957
 Alpha virt. eigenvalues --    0.13202   0.13716   0.14212   0.14261   0.14805

 Mulliken charges:
               1
     1  N   -0.310169
     2  C    0.177022
     3  C    0.070734
     4  N   -0.255196
     5  C    0.131561
     6  H    0.027812
     7  N   -0.282774
     8  C    0.138793
     9  H    0.013929
    10  N   -0.285730
    11  C    0.224708
    12  C    0.096525
    13  N   -0.047952
    14  H    0.109984
    15  H    0.087847
    16  H    0.028605
    17  H    0.035249
    18  H    0.024432
    19  N   -0.284437
    20  C    0.226720
    21  C    0.183117
    22  N   -0.104702
    23  H    0.113535
    24  H    0.114185
    25  N   -0.296442
    26  C    0.214647
    27  N   -0.143809
    28  H    0.129390
    29  C    0.168775
    30  O   -0.323931
    31  C    0.000125
    32  N   -0.219770
    33  C    0.123303
    34  H    0.016669
    35  H    0.019103
    36  H    0.025985
    37  H    0.019322
    38  H    0.040142
    39  H    0.060692
    40  H    0.072856
    41  H    0.026854
    42  C   -0.111616
    43  O   -0.267957
    44  C    0.170501
    45  H    0.132535
    46  N   -0.122468
    47  O   -0.335961
    48  C    0.335674
    49  H    0.044522
    50  C    0.178348
    51  C    0.046014
    52  N   -0.277765
    53  H    0.036316
    54  H    0.037460
    55  H    0.018508
    56  H    0.124228
    57  H    0.119130
    58  N   -0.058842
    59  C    0.109965
    60  C    0.224898
    61  N   -0.267343
    62  H    0.046327
    63  C    0.141625
    64  N   -0.301335
    65  H    0.039611
    66  C    0.102290
    67  N   -0.246151
    68  C    0.027613
    69  C    0.181567
    70  N   -0.295406
 Sum of Mulliken charges =  -0.00000

 Dipole moment (field-independent basis, Debye):
    X=             -5.9929    Y=              6.2123    Z=             -4.0348  Tot=              9.5282
 Quadrupole moment (field-independent basis, Debye-Ang):
   XX=           -145.9149   YY=           -226.4393   ZZ=           -259.3628
   XY=            -11.0130   XZ=              5.6834   YZ=              9.4003

 Normal termination of Gaussian 16 at Sat Jan 20 09:54:20 2018.
