 Gaussian 16, Revision A.03,
 Gaussian 16:  EM64L-G16RevA.03 25-Dec-2016

 ---------------------------------------
 #p wb97xd/cc-pvdz sp scf=(maxcycles=20)
 ---------------------------------------

 ------------------
 Base pair stacking
 ------------------
 Symbolic Z-matrix:
 Charge =  0 Multiplicity = 1

                         Standard orientation:
 ---------------------------------------------------------------------
 Center     Atomic      Atomic             Coordinates (Angstroms)
 Number     Number       Type             X           Y           Z
 ---------------------------------------------------------------------
      1          7           0        4.873461   -1.373144   -1.619326
      2          6           0        6.211196   -0.797832   -1.859127
      3          6           0        2.699622   -1.636576   -1.413574
      4          7           0        3.269662   -2.864959   -1.112141
      5          6           0        4.556511   -2.657082   -1.248168
      6          1           0        5.326786   -3.412194   -1.088681
      7          7           0        1.138693    0.090887   -1.790802
      8          6           0        2.186544    0.873147   -2.069465
      9          1           0        1.942044    1.900536   -2.335850
     10          7           0        3.484979    0.578228   -2.068489
     11          6           0        3.675707   -0.707152   -1.728133
     12          6           0        1.363760   -1.197325   -1.451787
     13          7           0        0.319066   -1.979764   -1.173268
     14          1           0        0.438736   -2.939752   -0.917672
     15          1           0       -0.618305   -1.633240   -1.210570
     16          1           0        6.663447   -1.298555   -2.597311
     17          1           0        6.120038    0.163618   -2.116872
     18          1           0        6.760366   -0.867280   -1.026309
     19          7           0        5.155695    1.447729    0.944684
     20          6           0        3.785876    1.551717    0.973537
     21          6           0        6.084999    2.521532    0.539672
     22          7           0        0.900142    3.419784    0.478910
     23          1           0       -0.086951    3.290061    0.568631
     24          1           0        1.213118    4.315714    0.162556
     25          7           0        3.064508    2.643535    0.639432
     26          6           0        1.766021    2.437081    0.769514
     27          7           0        1.214148    1.252750    1.194148
     28          1           0        0.210394    1.185011    1.263777
     29          6           0        1.937145    0.116386    1.543176
     30          8           0        1.341518   -0.902598    1.914158
     31          6           0        3.333608    0.322873    1.408507
     32          7           0        4.398083   -0.535313    1.647926
     33          6           0        5.455938    0.173335    1.359916
     34          1           0        6.482937   -0.186101    1.433082
     35          1           0        6.624318    2.219284   -0.245549
     36          1           0        5.562020    3.335404    0.289944
     37          1           0        6.696373    2.739695    1.299567
     38          1           0       -4.850231    1.284267    0.781141
     39          1           0       -4.802256    1.574025    2.518493
     40          1           0       -3.497568    2.166905    1.490077
     41          1           0       -4.019446   -3.171343    2.394821
     42          6           0       -3.477335   -2.241073    2.224699
     43          8           0       -1.335300   -3.254354    2.334551
     44          6           0       -2.046896   -2.260838    2.188497
     45          1           0       -0.451158   -1.004789    1.934947
     46          7           0       -1.460616   -1.030982    1.967187
     47          8           0       -1.492773    1.208942    1.594492
     48          6           0       -2.099816    0.169691    1.784586
     49          1           0       -5.215876   -1.016782    2.068512
     50          6           0       -4.129008   -1.085477    2.049961
     51          6           0       -4.205094    1.365618    1.643260
     52          7           0       -3.478558    0.107108    1.833090
     53          1           0       -6.043968    3.358662   -2.433736
     54          1           0       -4.696032    3.539955   -1.532447
     55          1           0       -6.158706    3.481855   -0.810443
     56          1           0       -3.107999   -3.281582   -0.899874
     57          1           0       -4.788789   -3.024547   -1.037645
     58          7           0       -3.866552   -2.637964   -1.002340
     59          6           0       -3.658606   -1.322456   -1.088196
     60          6           0       -4.317336    0.953370   -1.308296
     61          7           0       -3.067978    1.444279   -1.257963
     62          1           0       -1.141661    0.769759   -1.071044
     63          6           0       -2.184070    0.458004   -1.120510
     64          7           0       -2.390351   -0.860172   -1.034350
     65          1           0       -7.541450    1.014802   -1.539616
     66          6           0       -6.494176    0.726674   -1.443997
     67          7           0       -6.068974   -0.506809   -1.319904
     68          6           0       -4.690427   -0.377287   -1.232899
     69          6           0       -5.606017    3.127642   -1.564927
     70          7           0       -5.487782    1.661502   -1.444652
 ---------------------------------------------------------------------

 SCF Done:  E(RwB97XD) =  -2048.74777018     A.U. after   15 cycles

 The electronic state is 1-A.
 Alpha  occ. eigenvalues --  -19.25254 -19.21566 -19.20576 -14.52794 -14.51816
 Alpha  occ. eigenvalues --  -14.49061 -14.48648 -14.48352 -14.47264 -14.46686
 Alpha  occ. eigenvalues --  -14.46614 -14.45730 -14.44657 -14.44615 -14.42755
 Alpha  occ. eigenvalues --  -14.41912 -14.41281 -14.41197 -14.41157 -14.40716
 Alpha  occ. eigenvalues --  -10.44872 -10.41131 -10.40277 -10.39637 -10.38255
 Alpha  occ. eigenvalues --  -10.38209 -10.37515 -10.37148 -10.36217 -10.35779
 Alpha  occ. eigenvalues --  -10.34461 -10.34239 -10.34205 -10.33924 -10.33732
 Alpha  occ. eigenvalues --  -10.33432 -10.33351 -10.32985 -10.31189 -10.31163
 Alpha  occ. eigenvalues --  -10.30558 -10.28605 -10.28245  -1.18895  -1.15617
 Alpha  occ. eigenvalues --   -1.13185  -1.12558  -1.11250  -1.10750  -1.09655
 Alpha  occ. eigenvalues --   -1.08717  -1.08501  -1.05369  -1.05120  -1.01919
 Alpha  occ. eigenvalues --   -1.01278  -1.00750  -0.99671  -0.98543  -0.97256
 Alpha  occ. eigenvalues --   -0.96894  -0.96773  -0.93062  -0.90461  -0.88004
 Alpha  occ. eigenvalues --   -0.86212  -0.84321  -0.83983  -0.83019  -0.82688
 Alpha  occ. eigenvalues --   -0.82448  -0.78305  -0.77356  -0.75177  -0.74731
 Alpha  occ. eigenvalues --   -0.73593  -0.73071  -0.72801  -0.71250  -0.70701
 Alpha  occ. eigenvalues --   -0.67411  -0.67082  -0.66484  -0.66026  -0.64538
 Alpha  occ. eigenvalues --   -0.64359  -0.63551  -0.62939  -0.62594  -0.61821
 Alpha  occ. eigenvalues --   -0.61396  -0.60796  -0.60631  -0.59765  -0.59012
 Alpha  occ. eigenvalues --   -0.58752  -0.58352  -0.57492  -0.56768  -0.55922
 Alpha  occ. eigenvalues --   -0.55874  -0.55640  -0.55527  -0.54358  -0.54079
 Alpha  occ. eigenvalues --   -0.53915  -0.53877  -0.53408  -0.53107  -0.52982
 Alpha  occ. eigenvalues --   -0.52819  -0.51896  -0.51804  -0.50662  -0.50471
 Alpha  occ. eigenvalues --   -0.50232  -0.50139  -0.49302  -0.49142  -0.48949
 Alpha  occ. eigenvalues --   -0.48699  -0.48272  -0.48138  -0.47993  -0.47134
 Alpha  occ. eigenvalues --   -0.47094  -0.45883  -0.45525  -0.44871  -0.42535
 Alpha  occ. eigenvalues --   -0.41301  -0.41019  -0.38961  -0.38123  -0.37902
 Alpha  occ. eigenvalues --   -0.37463  -0.37230  -0.37076  -0.35818  -0.34993
 Alpha  occ. eigenvalues --   -0.34555  -0.34205  -0.33631  -0.33351  -0.32959
 Alpha  occ. eigenvalues --   -0.32709  -0.32596  -0.31891  -0.31434  -0.30907
 Alpha  occ. eigenvalues --   -0.30652  -0.30189  -0.26201  -0.25352
 Alpha virt. eigenvalues --    0.03260   0.03889   0.06788   0.07601   0.08704
 Alpha virt. eigenvalues --    0.09097   0.09762   0.10164   0.10879   0.12549
 Alpha virt. eigenvalues --    0.12875   0.13732   0.14165   0.14403   0.14537

 Mulliken charges:
               1
     1  N   -0.302065
     2  C    0.179346
     3  C    0.064926
     4  N   -0.255113
     5  C    0.146781
     6  H    0.026759
     7  N   -0.286572
     8  C    0.126536
     9  H    0.010664
    10  N   -0.275835
    11  C    0.233648
    12  C    0.075869
    13  N   -0.052735
    14  H    0.113876
    15  H    0.084408
    16  H    0.027449
    17  H    0.032880
    18  H    0.013378
    19  N   -0.302716
    20  C    0.261375
    21  C    0.185442
    22  N   -0.119238
    23  H    0.120688
    24  H    0.117941
    25  N   -0.298395
    26  C    0.223945
    27  N   -0.126238
    28  H    0.118225
    29  C    0.176410
    30  O   -0.320902
    31  C   -0.013304
    32  N   -0.216244
    33  C    0.101163
    34  H    0.025068
    35  H    0.018669
    36  H    0.032664
    37  H    0.024295
    38  H    0.053608
    39  H    0.053291
    40  H    0.076639
    41  H    0.021808
    42  C   -0.098483
    43  O   -0.269945
    44  C    0.169868
    45  H    0.129811
    46  N   -0.116364
    47  O   -0.345702
    48  C    0.333301
    49  H    0.045273
    50  C    0.157672
    51  C    0.053667
    52  N   -0.275089
    53  H    0.036367
    54  H    0.041598
    55  H    0.027463
    56  H    0.124041
    57  H    0.117786
    58  N   -0.055847
    59  C    0.096034
    60  C    0.190339
    61  N   -0.256687
    62  H    0.020997
    63  C    0.173805
    64  N   -0.308465
    65  H    0.036970
    66  C    0.126344
    67  N   -0.250497
    68  C    0.034496
    69  C    0.179984
    70  N   -0.297128
 Sum of Mulliken charges =  -0.00000

 Dipole moment (field-independent basis, Debye):
    X=             -6.3260    Y=              7.2363    Z=             -2.5977  Tot=              9.9564
 Quadrupole moment (field-independent basis, Debye-Ang):
   XX=           -150.5244   YY=           -226.8340   ZZ=           -257.1915
   XY=             -4.1076   XZ=             -9.0187   YZ=             11.6895

 Normal termination of Gaussian 16 at Sun Jan 21 00:55:01 2018.
