 Gaussian 16, Revision A.03,
 Gaussian 16:  EM64L-G16RevA.03 25-Dec-2016

 ---------------------------------------
 #p wb97xd/cc-pvdz sp scf=(maxcycles=20)
 ---------------------------------------

 ------------------
 Base pair stacking
 ------------------
 Symbolic Z-matrix:
 Charge =  0 Multiplicity = 1

                         Standard orientation:
 ---------------------------------------------------------------------
 Center     Atomic      Atomic             Coordinates (Angstroms)
 Number     Number       Type             X           Y           Z
 ---------------------------------------------------------------------
      1          7           0       -6.895566   -1.062596    0.297012
      2          6           0       -8.214108   -0.403896    0.371732
      3          6           0       -4.743489   -1.491329    0.445567
      4          7           0       -5.326014   -2.618755   -0.115058
      5          6           0       -6.599252   -2.315335   -0.182115
      6          1           0       -7.373710   -2.974197   -0.575883
      7          7           0       -3.171305    0.032350    1.322834
      8          6           0       -4.199480    0.865191    1.514695
      9          1           0       -3.942600    1.827057    1.956386
     10          7           0       -5.491255    0.689093    1.244129
     11          6           0       -5.698428   -0.523692    0.704992
     12          6           0       -3.412573   -1.180346    0.778550
     13          7           0       -2.387525   -2.013102    0.586246
     14          1           0       -2.519670   -2.920719    0.186268
     15          1           0       -1.453089   -1.758288    0.835298
     16          1           0       -8.828093   -0.947967    0.943735
     17          1           0       -8.110228    0.507439    0.768966
     18          1           0       -8.601224   -0.323161   -0.546760
     19          7           0       -2.991569    1.988870   -1.512475
     20          6           0       -1.636831    1.973722   -1.283318
     21          6           0       -3.892460    3.124437   -1.230332
     22          7           0        1.243330    3.563337   -0.169977
     23          1           0        2.216305    3.351162   -0.083115
     24          1           0        0.948429    4.471166    0.129357
     25          7           0       -0.906931    2.985518   -0.766066
     26          6           0        0.372412    2.671217   -0.665479
     27          7           0        0.898710    1.459313   -1.042080
     28          1           0        1.889127    1.306674   -0.929198
     29          6           0        0.166478    0.403848   -1.576584
     30          8           0        0.738633   -0.649209   -1.883904
     31          6           0       -1.209634    0.726586   -1.690698
     32          7           0       -2.274743   -0.026062   -2.166050
     33          6           0       -3.308416    0.761446   -2.041318
     34          1           0       -4.328578    0.496021   -2.320761
     35          1           0       -4.591788    2.842287   -0.574498
     36          1           0       -3.362922    3.879926   -0.846797
     37          1           0       -4.331082    3.422529   -2.077421
     38          1           0        6.760866    0.945753    0.480981
     39          1           0        7.062983    1.301228   -1.218141
     40          1           0        5.639503    1.968294   -0.418088
     41          1           0        5.897875   -3.358923   -1.486640
     42          6           0        5.408801   -2.391600   -1.371230
     43          8           0        3.252144   -3.209167   -1.925748
     44          6           0        4.000012   -2.287567   -1.599966
     45          1           0        2.489530   -0.906866   -1.579687
     46          7           0        3.481794   -1.019990   -1.426919
     47          8           0        3.620549    1.193604   -0.939146
     48          6           0        4.168315    0.112835   -1.067859
     49          1           0        7.178439   -1.330380   -0.834556
     50          6           0        6.105448   -1.304457   -1.019919
     51          6           0        6.297544    1.114300   -0.479743
     52          7           0        5.522294   -0.068213   -0.864980
     53          1           0        3.962081    2.547344    3.662045
     54          1           0        2.821186    2.955231    2.569309
     55          1           0        4.386093    2.855067    2.116432
     56          1           0        0.937851   -3.571658    0.750438
     57          1           0        2.576367   -3.483508    1.216924
     58          7           0        1.704214   -3.015085    1.071492
     59          6           0        1.570158   -1.706346    1.296021
     60          6           0        2.323157    0.458614    1.934484
     61          7           0        1.139971    1.061049    1.730600
     62          1           0       -0.757255    0.587895    1.116381
     63          6           0        0.234929    0.181077    1.306991
     64          7           0        0.367242   -1.130115    1.081497
     65          1           0        5.444173    0.204961    2.738884
     66          6           0        4.416719    0.024695    2.421421
     67          7           0        3.942674   -1.142077    2.058636
     68          6           0        2.616144   -0.881026    1.747332
     69          6           0        3.680175    2.462806    2.706335
     70          7           0        3.491124    1.038285    2.370183
 ---------------------------------------------------------------------

 SCF Done:  E(RwB97XD) =  -2048.74725697     A.U. after   15 cycles

 The electronic state is 1-A.
 Alpha  occ. eigenvalues --  -19.26045 -19.22016 -19.20576 -14.52497 -14.51424
 Alpha  occ. eigenvalues --  -14.49632 -14.48489 -14.47884 -14.46673 -14.46608
 Alpha  occ. eigenvalues --  -14.46524 -14.44418 -14.42924 -14.42797 -14.42787
 Alpha  occ. eigenvalues --  -14.42267 -14.41989 -14.41875 -14.40932 -14.40680
 Alpha  occ. eigenvalues --  -10.45593 -10.41077 -10.40106 -10.38501 -10.38157
 Alpha  occ. eigenvalues --  -10.37671 -10.37040 -10.36186 -10.35977 -10.35786
 Alpha  occ. eigenvalues --  -10.34910 -10.34555 -10.34256 -10.34232 -10.33932
 Alpha  occ. eigenvalues --  -10.33485 -10.33110 -10.31697 -10.31373 -10.30973
 Alpha  occ. eigenvalues --  -10.30267 -10.29406 -10.28018  -1.19574  -1.14110
 Alpha  occ. eigenvalues --   -1.13153  -1.13040  -1.12223  -1.10424  -1.09384
 Alpha  occ. eigenvalues --   -1.08482  -1.07844  -1.05798  -1.03397  -1.02533
 Alpha  occ. eigenvalues --   -1.01209  -0.99917  -0.99663  -0.98438  -0.97762
 Alpha  occ. eigenvalues --   -0.96343  -0.95461  -0.93429  -0.91000  -0.86592
 Alpha  occ. eigenvalues --   -0.85085  -0.84772  -0.83982  -0.83870  -0.83106
 Alpha  occ. eigenvalues --   -0.82145  -0.78870  -0.75861  -0.74486  -0.73689
 Alpha  occ. eigenvalues --   -0.73619  -0.73533  -0.73383  -0.71891  -0.69240
 Alpha  occ. eigenvalues --   -0.67288  -0.67079  -0.66570  -0.65567  -0.64452
 Alpha  occ. eigenvalues --   -0.63638  -0.63524  -0.63043  -0.62614  -0.61631
 Alpha  occ. eigenvalues --   -0.60912  -0.60311  -0.59519  -0.59420  -0.58651
 Alpha  occ. eigenvalues --   -0.58493  -0.58273  -0.57259  -0.57219  -0.56473
 Alpha  occ. eigenvalues --   -0.56059  -0.56002  -0.54697  -0.54443  -0.54390
 Alpha  occ. eigenvalues --   -0.53646  -0.53509  -0.52855  -0.52753  -0.52700
 Alpha  occ. eigenvalues --   -0.52443  -0.52240  -0.51734  -0.51540  -0.50940
 Alpha  occ. eigenvalues --   -0.50016  -0.49823  -0.49468  -0.48869  -0.48668
 Alpha  occ. eigenvalues --   -0.48614  -0.48170  -0.47841  -0.47719  -0.47611
 Alpha  occ. eigenvalues --   -0.47345  -0.45703  -0.45342  -0.43988  -0.43330
 Alpha  occ. eigenvalues --   -0.41999  -0.39731  -0.39562  -0.38027  -0.37217
 Alpha  occ. eigenvalues --   -0.37164  -0.36853  -0.36283  -0.35528  -0.34416
 Alpha  occ. eigenvalues --   -0.34316  -0.34279  -0.33282  -0.33200  -0.32941
 Alpha  occ. eigenvalues --   -0.32615  -0.32219  -0.31932  -0.31811  -0.31673
 Alpha  occ. eigenvalues --   -0.31161  -0.28406  -0.26613  -0.25346
 Alpha virt. eigenvalues --    0.03183   0.04937   0.07150   0.08259   0.08610
 Alpha virt. eigenvalues --    0.09119   0.09704   0.10110   0.10808   0.11713
 Alpha virt. eigenvalues --    0.12917   0.13349   0.14485   0.14693   0.15195

 Mulliken charges:
               1
     1  N   -0.311019
     2  C    0.180378
     3  C    0.043402
     4  N   -0.255824
     5  C    0.131861
     6  H    0.029084
     7  N   -0.276274
     8  C    0.128098
     9  H    0.017913
    10  N   -0.291277
    11  C    0.229663
    12  C    0.103321
    13  N   -0.043567
    14  H    0.108425
    15  H    0.088549
    16  H    0.027976
    17  H    0.034831
    18  H    0.025910
    19  N   -0.299893
    20  C    0.244825
    21  C    0.180572
    22  N   -0.107065
    23  H    0.109812
    24  H    0.115645
    25  N   -0.298150
    26  C    0.227881
    27  N   -0.121205
    28  H    0.118017
    29  C    0.142863
    30  O   -0.321898
    31  C    0.007293
    32  N   -0.224089
    33  C    0.120657
    34  H    0.027087
    35  H    0.025253
    36  H    0.026076
    37  H    0.021674
    38  H    0.050275
    39  H    0.064862
    40  H    0.074802
    41  H    0.030002
    42  C   -0.100565
    43  O   -0.272391
    44  C    0.175779
    45  H    0.136591
    46  N   -0.130938
    47  O   -0.349192
    48  C    0.349495
    49  H    0.046113
    50  C    0.177191
    51  C    0.035431
    52  N   -0.286742
    53  H    0.033357
    54  H    0.034188
    55  H    0.018880
    56  H    0.120845
    57  H    0.119509
    58  N   -0.054455
    59  C    0.120558
    60  C    0.233212
    61  N   -0.270877
    62  H    0.045621
    63  C    0.159330
    64  N   -0.301388
    65  H    0.028272
    66  C    0.116324
    67  N   -0.252058
    68  C    0.006334
    69  C    0.177290
    70  N   -0.302459
 Sum of Mulliken charges =  -0.00000

 Dipole moment (field-independent basis, Debye):
    X=              5.8406    Y=              5.9323    Z=              3.5259  Tot=              9.0408
 Quadrupole moment (field-independent basis, Debye-Ang):
   XX=           -140.3258   YY=           -226.3645   ZZ=           -255.8306
   XY=             13.6689   XZ=             16.1520   YZ=             -5.9666

 Normal termination of Gaussian 16 at Sat Jan 20 08:42:22 2018.
