 Gaussian 16, Revision A.03,
 Gaussian 16:  EM64L-G16RevA.03 25-Dec-2016

 ---------------------------------------
 #p wb97xd/cc-pvdz sp scf=(maxcycles=20)
 ---------------------------------------

 ------------------
 Base pair stacking
 ------------------
 Symbolic Z-matrix:
 Charge =  0 Multiplicity = 1

                         Standard orientation:
 ---------------------------------------------------------------------
 Center     Atomic      Atomic             Coordinates (Angstroms)
 Number     Number       Type             X           Y           Z
 ---------------------------------------------------------------------
      1          7           0        5.176889   -1.524276   -1.369693
      2          6           0        6.514569   -0.977966   -1.669992
      3          6           0        3.001591   -1.775844   -1.164487
      4          7           0        3.574983   -2.939152   -0.671877
      5          6           0        4.862575   -2.741031   -0.815227
      6          1           0        5.635304   -3.455752   -0.530623
      7          7           0        1.435226   -0.140575   -1.824299
      8          6           0        2.482282    0.601526   -2.199183
      9          1           0        2.235195    1.574702   -2.621249
     10          7           0        3.782620    0.323295   -2.131290
     11          6           0        3.976475   -0.894369   -1.598231
     12          6           0        1.663461   -1.360891   -1.291547
     13          7           0        0.619559   -2.103159   -0.916722
     14          1           0        0.741546   -3.012586   -0.517629
     15          1           0       -0.319491   -1.775702   -1.022009
     16          1           0        6.984261   -1.579303   -2.316493
     17          1           0        6.421127   -0.067130   -2.070944
     18          1           0        7.048562   -0.915945   -0.826778
     19          7           0        4.858218    1.645310    0.982371
     20          6           0        3.487392    1.738778    0.970601
     21          6           0        5.789598    2.698254    0.530086
     22          7           0        0.601526    3.544354    0.282558
     23          1           0       -0.386552    3.412059    0.356395
     24          1           0        0.915833    4.420189   -0.084657
     25          7           0        2.766746    2.799690    0.547287
     26          6           0        1.466935    2.590729    0.658809
     27          7           0        0.913178    1.432164    1.147270
     28          1           0       -0.091496    1.360243    1.196532
     29          6           0        1.635408    0.327807    1.588455
     30          8           0        1.038055   -0.669713    2.011375
     31          6           0        3.033277    0.537362    1.474770
     32          7           0        4.097599   -0.293629    1.796589
     33          6           0        5.157193    0.403837    1.488353
     34          1           0        6.184609    0.059170    1.610390
     35          1           0        6.350646    2.349621   -0.219904
     36          1           0        5.267161    3.489166    0.214218
     37          1           0        6.380097    2.971548    1.288660
     38          1           0       -5.138986    1.382372    0.584171
     39          1           0       -5.136754    1.786636    2.299170
     40          1           0       -3.810987    2.321899    1.266119
     41          1           0       -4.316684   -2.949384    2.509361
     42          6           0       -3.777234   -2.027588    2.291366
     43          8           0       -1.631346   -3.012312    2.520704
     44          6           0       -2.346235   -2.036973    2.291721
     45          1           0       -0.753786   -0.786269    1.994820
     46          7           0       -1.763516   -0.819250    2.003908
     47          8           0       -1.802552    1.390802    1.482988
     48          6           0       -2.406625    0.361015    1.726529
     49          1           0       -5.520137   -0.831806    2.011756
     50          6           0       -4.432678   -0.891907    2.024507
     51          6           0       -4.516308    1.526209    1.454602
     52          7           0       -3.785659    0.289501    1.745176
     53          1           0       -5.758176    2.920493   -3.076148
     54          1           0       -4.428731    3.248794   -2.189086
     55          1           0       -5.904183    3.284993   -1.492095
     56          1           0       -2.802268   -3.383826   -0.510288
     57          1           0       -4.482044   -3.167478   -0.714351
     58          7           0       -3.563520   -2.770635   -0.721558
     59          6           0       -3.363768   -1.480910   -1.000645
     60          6           0       -4.035123    0.729207   -1.571925
     61          7           0       -2.790596    1.234749   -1.574284
     62          1           0       -0.863164    0.615552   -1.254590
     63          6           0       -1.902128    0.289348   -1.274723
     64          7           0       -2.100205   -1.002952   -0.994891
     65          1           0       -7.254702    0.722488   -1.865872
     66          6           0       -6.207293    0.462639   -1.709820
     67          7           0       -5.775356   -0.733832   -1.394262
     68          6           0       -4.399685   -0.578734   -1.303768
     69          6           0       -5.334860    2.827069   -2.174996
     70          7           0       -5.208029    1.396917   -1.833560
 ---------------------------------------------------------------------

 SCF Done:  E(RwB97XD) =  -2048.75216511     A.U. after   15 cycles

 The electronic state is 1-A.
 Alpha  occ. eigenvalues --  -19.25389 -19.21793 -19.20586 -14.52606 -14.51977
 Alpha  occ. eigenvalues --  -14.48908 -14.48688 -14.48073 -14.47411 -14.46774
 Alpha  occ. eigenvalues --  -14.46621 -14.45604 -14.44461 -14.44422 -14.42522
 Alpha  occ. eigenvalues --  -14.41972 -14.41166 -14.41133 -14.41115 -14.40569
 Alpha  occ. eigenvalues --  -10.44998 -10.41189 -10.39998 -10.39835 -10.38220
 Alpha  occ. eigenvalues --  -10.38099 -10.37299 -10.37203 -10.35965 -10.35630
 Alpha  occ. eigenvalues --  -10.34728 -10.34422 -10.34089 -10.33932 -10.33596
 Alpha  occ. eigenvalues --  -10.33391 -10.33264 -10.32771 -10.31250 -10.31011
 Alpha  occ. eigenvalues --  -10.30726 -10.28541 -10.28194  -1.19022  -1.15401
 Alpha  occ. eigenvalues --   -1.13176  -1.12767  -1.11255  -1.10662  -1.09410
 Alpha  occ. eigenvalues --   -1.08881  -1.08524  -1.05236  -1.04865  -1.02101
 Alpha  occ. eigenvalues --   -1.01104  -1.00608  -0.99690  -0.98533  -0.97063
 Alpha  occ. eigenvalues --   -0.96828  -0.96677  -0.92923  -0.90618  -0.87770
 Alpha  occ. eigenvalues --   -0.86052  -0.84206  -0.83988  -0.83264  -0.82596
 Alpha  occ. eigenvalues --   -0.82425  -0.78442  -0.77142  -0.74945  -0.74677
 Alpha  occ. eigenvalues --   -0.73599  -0.73001  -0.72969  -0.71163  -0.70481
 Alpha  occ. eigenvalues --   -0.67393  -0.66875  -0.66413  -0.66146  -0.64342
 Alpha  occ. eigenvalues --   -0.64311  -0.63643  -0.62848  -0.62599  -0.61795
 Alpha  occ. eigenvalues --   -0.61217  -0.60633  -0.60478  -0.59580  -0.59087
 Alpha  occ. eigenvalues --   -0.58722  -0.58349  -0.57219  -0.56702  -0.56078
 Alpha  occ. eigenvalues --   -0.55749  -0.55675  -0.55359  -0.54166  -0.53896
 Alpha  occ. eigenvalues --   -0.53803  -0.53683  -0.53503  -0.53428  -0.52957
 Alpha  occ. eigenvalues --   -0.52917  -0.52071  -0.51912  -0.50743  -0.50412
 Alpha  occ. eigenvalues --   -0.50185  -0.50036  -0.49250  -0.49048  -0.48844
 Alpha  occ. eigenvalues --   -0.48626  -0.48511  -0.48331  -0.47740  -0.47226
 Alpha  occ. eigenvalues --   -0.47037  -0.45992  -0.45258  -0.44813  -0.42897
 Alpha  occ. eigenvalues --   -0.41153  -0.40844  -0.39065  -0.38001  -0.37696
 Alpha  occ. eigenvalues --   -0.37288  -0.37210  -0.37189  -0.36026  -0.34739
 Alpha  occ. eigenvalues --   -0.34383  -0.34101  -0.33584  -0.33346  -0.33039
 Alpha  occ. eigenvalues --   -0.32677  -0.32479  -0.31875  -0.31810  -0.30966
 Alpha  occ. eigenvalues --   -0.30606  -0.29696  -0.26049  -0.25353
 Alpha virt. eigenvalues --    0.03367   0.03880   0.07084   0.07799   0.08734
 Alpha virt. eigenvalues --    0.09063   0.09703   0.10331   0.10869   0.12460
 Alpha virt. eigenvalues --    0.12915   0.13594   0.14262   0.14402   0.14701

 Mulliken charges:
               1
     1  N   -0.304812
     2  C    0.177101
     3  C    0.066463
     4  N   -0.253492
     5  C    0.141217
     6  H    0.025980
     7  N   -0.289964
     8  C    0.132239
     9  H    0.011205
    10  N   -0.282846
    11  C    0.232781
    12  C    0.081130
    13  N   -0.047561
    14  H    0.113478
    15  H    0.083820
    16  H    0.027653
    17  H    0.034033
    18  H    0.016629
    19  N   -0.301958
    20  C    0.260055
    21  C    0.184494
    22  N   -0.122901
    23  H    0.119485
    24  H    0.117846
    25  N   -0.306450
    26  C    0.242378
    27  N   -0.136925
    28  H    0.116012
    29  C    0.182178
    30  O   -0.322037
    31  C   -0.016527
    32  N   -0.217019
    33  C    0.109664
    34  H    0.020525
    35  H    0.022295
    36  H    0.031290
    37  H    0.023197
    38  H    0.052661
    39  H    0.058246
    40  H    0.075255
    41  H    0.021685
    42  C   -0.098115
    43  O   -0.270736
    44  C    0.164067
    45  H    0.129361
    46  N   -0.111078
    47  O   -0.344715
    48  C    0.334704
    49  H    0.045278
    50  C    0.163294
    51  C    0.048115
    52  N   -0.276930
    53  H    0.035620
    54  H    0.041389
    55  H    0.024563
    56  H    0.125917
    57  H    0.116602
    58  N   -0.054321
    59  C    0.086913
    60  C    0.204216
    61  N   -0.260736
    62  H    0.025635
    63  C    0.163996
    64  N   -0.303036
    65  H    0.035564
    66  C    0.118823
    67  N   -0.251407
    68  C    0.043704
    69  C    0.181474
    70  N   -0.296663
 Sum of Mulliken charges =  -0.00000

 Dipole moment (field-independent basis, Debye):
    X=             -6.2607    Y=              6.9297    Z=             -3.0300  Tot=              9.8183
 Quadrupole moment (field-independent basis, Debye-Ang):
   XX=           -149.4809   YY=           -224.7057   ZZ=           -258.5386
   XY=             -6.4456   XZ=             -4.6719   YZ=              7.6867

 Normal termination of Gaussian 16 at Sat Jan 20 08:06:45 2018.
