 Gaussian 16, Revision A.03,
 Gaussian 16:  EM64L-G16RevA.03 25-Dec-2016

 ---------------------------------------
 #p wb97xd/cc-pvdz sp scf=(maxcycles=20)
 ---------------------------------------

 ------------------
 Base pair stacking
 ------------------
 Symbolic Z-matrix:
 Charge =  0 Multiplicity = 1

                         Standard orientation:
 ---------------------------------------------------------------------
 Center     Atomic      Atomic             Coordinates (Angstroms)
 Number     Number       Type             X           Y           Z
 ---------------------------------------------------------------------
      1          7           0       -6.670562   -1.288462    0.219686
      2          6           0       -8.007854   -0.796609    0.604044
      3          6           0       -4.500318   -1.631396    0.120863
      4          7           0       -5.063823   -2.423246   -0.869170
      5          6           0       -6.348760   -2.184950   -0.770009
      6          1           0       -7.114099   -2.640058   -1.399341
      7          7           0       -2.950231   -0.575054    1.550667
      8          6           0       -3.999171    0.035584    2.111395
      9          1           0       -3.759631    0.715373    2.927951
     10          7           0       -5.293505   -0.066961    1.816285
     11          6           0       -5.478285   -0.926144    0.800377
     12          6           0       -3.169261   -1.433581    0.530838
     13          7           0       -2.123464   -2.044098   -0.030188
     14          1           0       -2.238732   -2.687507   -0.787796
     15          1           0       -1.189619   -1.879273    0.287488
     16          1           0       -8.578842   -1.566930    0.888228
     17          1           0       -7.921047   -0.150063    1.361381
     18          1           0       -8.433657   -0.338308   -0.176109
     19          7           0       -3.218727    2.476259   -1.092909
     20          6           0       -1.856322    2.419353   -0.923570
     21          6           0       -4.090260    3.578076   -0.637811
     22          7           0        1.089775    3.831573    0.254511
     23          1           0        2.062089    3.600415    0.274598
     24          1           0        0.820884    4.699063    0.673900
     25          7           0       -1.091070    3.352918   -0.317857
     26          6           0        0.186322    3.015581   -0.309259
     27          7           0        0.678694    1.853371   -0.851810
     28          1           0        1.670374    1.677944   -0.799406
     29          6           0       -0.090232    0.878598   -1.479854
     30          8           0        0.453126   -0.134896   -1.936287
     31          6           0       -1.464727    1.226950   -1.496834
     32          7           0       -2.559263    0.548907   -2.015627
     33          6           0       -3.575040    1.325863   -1.753430
     34          1           0       -4.609451    1.107006   -2.020594
     35          1           0       -4.767138    3.225186    0.007262
     36          1           0       -3.534434    4.275638   -0.187550
     37          1           0       -4.557704    3.981814   -1.423502
     38          1           0        6.588364    1.097653    0.353571
     39          1           0        6.827937    1.654731   -1.300794
     40          1           0        5.447776    2.233722   -0.367365
     41          1           0        5.582242   -2.925613   -2.085189
     42          6           0        5.112937   -1.974640   -1.832930
     43          8           0        2.923695   -2.696251   -2.392936
     44          6           0        3.697898   -1.829028   -1.988812
     45          1           0        2.210622   -0.445696   -1.738384
     46          7           0        3.206344   -0.586805   -1.641704
     47          8           0        3.398112    1.549176   -0.894688
     48          6           0        3.923790    0.486633   -1.176352
     49          1           0        6.918503   -1.005072   -1.244981
     50          6           0        5.839494   -0.945706   -1.381242
     51          6           0        6.089764    1.386941   -0.559537
     52          7           0        5.281866    0.268300   -1.053211
     53          1           0        4.175483    1.000606    4.620491
     54          1           0        2.978357    1.791536    3.843685
     55          1           0        4.526706    1.979205    3.362564
     56          1           0        1.259504   -3.348104   -0.637960
     57          1           0        2.910977   -3.393592   -0.212927
     58          7           0        2.017539   -2.952986   -0.118910
     59          6           0        1.845692   -1.885962    0.664097
     60          6           0        2.545340   -0.190276    2.179645
     61          7           0        1.334198    0.380779    2.286662
     62          1           0       -0.567682    0.133611    1.563921
     63          6           0        0.445197   -0.265782    1.535302
     64          7           0        0.615356   -1.334667    0.750379
     65          1           0        5.702820   -0.617561    2.727262
     66          6           0        4.670732   -0.690027    2.383066
     67          7           0        4.224794   -1.599020    1.550866
     68          6           0        2.878487   -1.293599    1.413341
     69          6           0        3.859184    1.332463    3.731775
     70          7           0        3.708121    0.194906    2.803799
 ---------------------------------------------------------------------

 SCF Done:  E(RwB97XD) =  -2048.73937881     A.U. after   15 cycles

 The electronic state is 1-A.
 Alpha  occ. eigenvalues --  -19.26169 -19.22404 -19.20869 -14.52658 -14.51173
 Alpha  occ. eigenvalues --  -14.49135 -14.48801 -14.48216 -14.47160 -14.46903
 Alpha  occ. eigenvalues --  -14.45534 -14.44209 -14.42547 -14.42357 -14.42194
 Alpha  occ. eigenvalues --  -14.42103 -14.41741 -14.41179 -14.40914 -14.40343
 Alpha  occ. eigenvalues --  -10.45768 -10.41422 -10.40446 -10.38439 -10.37901
 Alpha  occ. eigenvalues --  -10.37822 -10.36734 -10.35691 -10.35623 -10.35538
 Alpha  occ. eigenvalues --  -10.34475 -10.34402 -10.34190 -10.33662 -10.33358
 Alpha  occ. eigenvalues --  -10.33310 -10.33042 -10.31351 -10.31097 -10.31009
 Alpha  occ. eigenvalues --  -10.30764 -10.28794 -10.28243  -1.19722  -1.13851
 Alpha  occ. eigenvalues --   -1.13670  -1.13405  -1.11695  -1.10696  -1.09556
 Alpha  occ. eigenvalues --   -1.08778  -1.07341  -1.05177  -1.02927  -1.02867
 Alpha  occ. eigenvalues --   -1.00555  -0.99966  -0.99550  -0.98704  -0.97233
 Alpha  occ. eigenvalues --   -0.96638  -0.94969  -0.92794  -0.91130  -0.86208
 Alpha  occ. eigenvalues --   -0.84676  -0.84259  -0.84185  -0.83988  -0.82616
 Alpha  occ. eigenvalues --   -0.82500  -0.79066  -0.75429  -0.74738  -0.73855
 Alpha  occ. eigenvalues --   -0.73661  -0.73176  -0.73108  -0.71280  -0.68771
 Alpha  occ. eigenvalues --   -0.67557  -0.66803  -0.66497  -0.65150  -0.64688
 Alpha  occ. eigenvalues --   -0.63920  -0.62940  -0.62837  -0.62521  -0.61898
 Alpha  occ. eigenvalues --   -0.60357  -0.60184  -0.59696  -0.58962  -0.58577
 Alpha  occ. eigenvalues --   -0.58404  -0.58090  -0.56848  -0.56685  -0.56543
 Alpha  occ. eigenvalues --   -0.56227  -0.55461  -0.54654  -0.54583  -0.54038
 Alpha  occ. eigenvalues --   -0.53807  -0.53568  -0.53062  -0.52778  -0.52477
 Alpha  occ. eigenvalues --   -0.52197  -0.51992  -0.51381  -0.51104  -0.50429
 Alpha  occ. eigenvalues --   -0.50378  -0.49769  -0.49356  -0.49293  -0.49109
 Alpha  occ. eigenvalues --   -0.48449  -0.48330  -0.47837  -0.47727  -0.47361
 Alpha  occ. eigenvalues --   -0.47185  -0.45423  -0.45279  -0.44104  -0.42826
 Alpha  occ. eigenvalues --   -0.41424  -0.39722  -0.39286  -0.37444  -0.37407
 Alpha  occ. eigenvalues --   -0.37334  -0.37056  -0.36082  -0.35549  -0.34442
 Alpha  occ. eigenvalues --   -0.33803  -0.33747  -0.33708  -0.33221  -0.32841
 Alpha  occ. eigenvalues --   -0.32633  -0.32343  -0.32062  -0.31979  -0.31228
 Alpha  occ. eigenvalues --   -0.30553  -0.27658  -0.26060  -0.25483
 Alpha virt. eigenvalues --    0.02796   0.05429   0.07769   0.08092   0.08718
 Alpha virt. eigenvalues --    0.09120   0.09599   0.10742   0.10875   0.12259
 Alpha virt. eigenvalues --    0.13163   0.13735   0.14505   0.14693   0.15732

 Mulliken charges:
               1
     1  N   -0.310473
     2  C    0.180575
     3  C    0.041882
     4  N   -0.253049
     5  C    0.127797
     6  H    0.026675
     7  N   -0.287379
     8  C    0.131523
     9  H    0.014146
    10  N   -0.291374
    11  C    0.229956
    12  C    0.105235
    13  N   -0.040965
    14  H    0.109976
    15  H    0.090689
    16  H    0.027130
    17  H    0.034756
    18  H    0.023321
    19  N   -0.308871
    20  C    0.257215
    21  C    0.180030
    22  N   -0.122137
    23  H    0.113451
    24  H    0.118443
    25  N   -0.309348
    26  C    0.247503
    27  N   -0.141767
    28  H    0.117394
    29  C    0.177914
    30  O   -0.325590
    31  C   -0.007854
    32  N   -0.226928
    33  C    0.129645
    34  H    0.027347
    35  H    0.032677
    36  H    0.028303
    37  H    0.022964
    38  H    0.052268
    39  H    0.062792
    40  H    0.073859
    41  H    0.027566
    42  C   -0.084065
    43  O   -0.287746
    44  C    0.150915
    45  H    0.138472
    46  N   -0.121877
    47  O   -0.348657
    48  C    0.351803
    49  H    0.046204
    50  C    0.184460
    51  C    0.041416
    52  N   -0.285129
    53  H    0.031376
    54  H    0.040915
    55  H    0.019885
    56  H    0.123806
    57  H    0.115755
    58  N   -0.017874
    59  C    0.090292
    60  C    0.244507
    61  N   -0.278114
    62  H    0.032607
    63  C    0.162983
    64  N   -0.303426
    65  H    0.027366
    66  C    0.120805
    67  N   -0.254402
    68  C   -0.001122
    69  C    0.181068
    70  N   -0.309518
 Sum of Mulliken charges =  -0.00000

 Dipole moment (field-independent basis, Debye):
    X=              6.5658    Y=              5.9785    Z=              3.2415  Tot=              9.4531
 Quadrupole moment (field-independent basis, Debye-Ang):
   XX=           -142.0030   YY=           -225.4725   ZZ=           -252.9590
   XY=              6.7989   XZ=             15.6850   YZ=              2.4109

 Normal termination of Gaussian 16 at Sat Jan 20 20:43:02 2018.
