 Gaussian 16, Revision A.03,
 Gaussian 16:  EM64L-G16RevA.03 25-Dec-2016

 ---------------------------------------
 #p wb97xd/cc-pvdz sp scf=(maxcycles=20)
 ---------------------------------------

 ------------------
 Base pair stacking
 ------------------
 Symbolic Z-matrix:
 Charge =  0 Multiplicity = 1

                         Standard orientation:
 ---------------------------------------------------------------------
 Center     Atomic      Atomic             Coordinates (Angstroms)
 Number     Number       Type             X           Y           Z
 ---------------------------------------------------------------------
      1          7           0        6.570085   -1.053924   -0.494346
      2          6           0        7.878207   -0.381375   -0.373878
      3          6           0        4.424337   -1.454788   -0.763408
      4          7           0        5.025701   -2.686891   -0.551237
      5          6           0        6.294371   -2.396064   -0.397625
      6          1           0        7.079988   -3.128472   -0.209676
      7          7           0        2.826424    0.232723   -1.165806
      8          6           0        3.841193    1.101309   -1.107639
      9          1           0        3.568333    2.145624   -1.253265
     10          7           0        5.136337    0.874621   -0.897565
     11          6           0        5.363624   -0.438797   -0.731126
     12          6           0        3.087810   -1.081570   -0.994368
     13          7           0        2.076178   -1.950144   -1.052088
     14          1           0        2.223359   -2.932426   -0.930904
     15          1           0        1.137196   -1.648778   -1.218325
     16          1           0        8.498623   -0.727623   -1.077693
     17          1           0        7.759229    0.604112   -0.491303
     18          1           0        8.266884   -0.563191    0.529384
     19          7           0        3.383754    1.670124    1.452738
     20          6           0        2.027868    1.692781    1.231113
     21          6           0        4.322065    2.759694    1.116427
     22          7           0       -0.801898    3.332745    0.062910
     23          1           0       -1.782250    3.151464   -0.009760
     24          1           0       -0.477271    4.215582   -0.277580
     25          7           0        1.330578    2.706065    0.673349
     26          6           0        0.040385    2.433027    0.592977
     27          7           0       -0.525646    1.258154    1.025186
     28          1           0       -1.521523    1.135787    0.924000
     29          6           0        0.172542    0.201962    1.602104
     30          8           0       -0.434192   -0.815750    1.958325
     31          6           0        1.559838    0.480584    1.695147
     32          7           0        2.600941   -0.287628    2.197987
     33          6           0        3.660763    0.456652    2.033617
     34          1           0        4.672770    0.167883    2.319480
     35          1           0        5.006841    2.424523    0.470248
     36          1           0        3.816902    3.515857    0.702565
     37          1           0        4.776336    3.078983    1.947397
     38          1           0       -6.411899    0.885618   -0.445058
     39          1           0       -6.690413    1.325730    1.238212
     40          1           0       -5.249607    1.906377    0.402585
     41          1           0       -5.687728   -3.356386    1.706114
     42          6           0       -5.165793   -2.412933    1.545805
     43          8           0       -3.035594   -3.281040    2.125253
     44          6           0       -3.752772   -2.348785    1.762831
     45          1           0       -2.194963   -1.024504    1.674338
     46          7           0       -3.191556   -1.109115    1.531554
     47          8           0       -3.255745    1.084480    0.947392
     48          6           0       -3.840227    0.030408    1.126284
     49          1           0       -6.900546   -1.314447    0.971547
     50          6           0       -5.826139   -1.318321    1.150333
     51          6           0       -5.936774    1.079679    0.505037
     52          7           0       -5.201003   -0.111436    0.938209
     53          1           0       -4.351640    3.205136   -2.689753
     54          1           0       -3.213716    3.297884   -1.524158
     55          1           0       -4.775512    3.047064   -1.121711
     56          1           0       -1.225581   -3.446249   -1.663909
     57          1           0       -2.866687   -3.252576   -2.087443
     58          7           0       -2.001312   -2.832634   -1.811748
     59          6           0       -1.887906   -1.512882   -1.648775
     60          6           0       -2.675756    0.732310   -1.636261
     61          7           0       -1.501260    1.268498   -1.265470
     62          1           0        0.404840    0.667618   -0.811242
     63          6           0       -0.581616    0.317824   -1.112589
     64          7           0       -0.693241   -1.004532   -1.275335
     65          1           0       -5.795030    0.673351   -2.484117
     66          6           0       -4.763972    0.425054   -2.230711
     67          7           0       -4.271086   -0.789290   -2.219466
     68          6           0       -2.947736   -0.608711   -1.844157
     69          6           0       -4.065531    2.852735   -1.798719
     70          7           0       -3.853762    1.394920   -1.887765
 ---------------------------------------------------------------------

 SCF Done:  E(RwB97XD) =  -2048.69148909     A.U. after   15 cycles

 The electronic state is 1-A.
 Alpha  occ. eigenvalues --  -19.25883 -19.21874 -19.20467 -14.52527 -14.51830
 Alpha  occ. eigenvalues --  -14.49763 -14.48162 -14.47866 -14.47464 -14.46141
 Alpha  occ. eigenvalues --  -14.45620 -14.44836 -14.43577 -14.43197 -14.42746
 Alpha  occ. eigenvalues --  -14.42345 -14.41991 -14.41826 -14.41050 -14.40560
 Alpha  occ. eigenvalues --  -10.45528 -10.40564 -10.39998 -10.39254 -10.37866
 Alpha  occ. eigenvalues --  -10.37675 -10.37462 -10.36530 -10.36422 -10.35793
 Alpha  occ. eigenvalues --  -10.35324 -10.34968 -10.34411 -10.34338 -10.34127
 Alpha  occ. eigenvalues --  -10.33929 -10.33022 -10.31893 -10.31716 -10.30976
 Alpha  occ. eigenvalues --  -10.29488 -10.29051 -10.27751  -1.19638  -1.14634
 Alpha  occ. eigenvalues --   -1.13128  -1.12925  -1.12351  -1.10324  -1.09409
 Alpha  occ. eigenvalues --   -1.08719  -1.08160  -1.06041  -1.04157  -1.02508
 Alpha  occ. eigenvalues --   -1.01572  -1.00504  -0.99225  -0.98352  -0.97928
 Alpha  occ. eigenvalues --   -0.96291  -0.95977  -0.93742  -0.91033  -0.87295
 Alpha  occ. eigenvalues --   -0.85808  -0.85018  -0.84058  -0.83588  -0.83295
 Alpha  occ. eigenvalues --   -0.81628  -0.78872  -0.76589  -0.74477  -0.74378
 Alpha  occ. eigenvalues --   -0.73858  -0.73391  -0.73268  -0.72175  -0.70044
 Alpha  occ. eigenvalues --   -0.67365  -0.67055  -0.66552  -0.66377  -0.64536
 Alpha  occ. eigenvalues --   -0.64042  -0.63747  -0.63374  -0.62767  -0.61348
 Alpha  occ. eigenvalues --   -0.61291  -0.61175  -0.60402  -0.59587  -0.59243
 Alpha  occ. eigenvalues --   -0.58476  -0.58033  -0.57887  -0.57431  -0.56764
 Alpha  occ. eigenvalues --   -0.56223  -0.55988  -0.55166  -0.55115  -0.54679
 Alpha  occ. eigenvalues --   -0.54226  -0.53355  -0.53221  -0.52836  -0.52479
 Alpha  occ. eigenvalues --   -0.52417  -0.52178  -0.52003  -0.51583  -0.50784
 Alpha  occ. eigenvalues --   -0.50020  -0.49781  -0.49403  -0.49072  -0.48598
 Alpha  occ. eigenvalues --   -0.48421  -0.48177  -0.47922  -0.47767  -0.47214
 Alpha  occ. eigenvalues --   -0.47126  -0.45802  -0.45328  -0.44097  -0.43244
 Alpha  occ. eigenvalues --   -0.41920  -0.40759  -0.39609  -0.38379  -0.37537
 Alpha  occ. eigenvalues --   -0.37379  -0.37020  -0.36595  -0.35420  -0.34769
 Alpha  occ. eigenvalues --   -0.34469  -0.34119  -0.33818  -0.33050  -0.32663
 Alpha  occ. eigenvalues --   -0.32489  -0.31943  -0.31838  -0.31666  -0.31516
 Alpha  occ. eigenvalues --   -0.31325  -0.28501  -0.26724  -0.24878
 Alpha virt. eigenvalues --    0.03160   0.04527   0.06912   0.07574   0.08383
 Alpha virt. eigenvalues --    0.09167   0.09790   0.10185   0.11206   0.11887
 Alpha virt. eigenvalues --    0.13130   0.13171   0.14192   0.14557   0.15107

 Mulliken charges:
               1
     1  N   -0.312937
     2  C    0.179146
     3  C    0.061815
     4  N   -0.257147
     5  C    0.132657
     6  H    0.029184
     7  N   -0.267408
     8  C    0.136471
     9  H    0.019476
    10  N   -0.294139
    11  C    0.231484
    12  C    0.098709
    13  N   -0.048015
    14  H    0.107829
    15  H    0.087850
    16  H    0.028662
    17  H    0.034464
    18  H    0.027083
    19  N   -0.285759
    20  C    0.229631
    21  C    0.171615
    22  N   -0.064839
    23  H    0.109857
    24  H    0.107066
    25  N   -0.286121
    26  C    0.182799
    27  N   -0.132138
    28  H    0.131663
    29  C    0.137018
    30  O   -0.322539
    31  C    0.031388
    32  N   -0.219550
    33  C    0.113861
    34  H    0.020633
    35  H    0.022956
    36  H    0.023425
    37  H    0.014718
    38  H    0.043466
    39  H    0.064289
    40  H    0.072200
    41  H    0.030844
    42  C   -0.108568
    43  O   -0.265189
    44  C    0.181493
    45  H    0.132424
    46  N   -0.129251
    47  O   -0.341144
    48  C    0.347344
    49  H    0.046128
    50  C    0.178635
    51  C    0.038024
    52  N   -0.282117
    53  H    0.034794
    54  H    0.023914
    55  H    0.013951
    56  H    0.120435
    57  H    0.119816
    58  N   -0.066463
    59  C    0.122664
    60  C    0.238602
    61  N   -0.309032
    62  H    0.030872
    63  C    0.195602
    64  N   -0.309749
    65  H    0.039233
    66  C    0.097433
    67  N   -0.245528
    68  C    0.006768
    69  C    0.186968
    70  N   -0.289731
 Sum of Mulliken charges =  -0.00000

 Dipole moment (field-independent basis, Debye):
    X=             -5.5538    Y=              5.8424    Z=             -4.4460  Tot=              9.2058
 Quadrupole moment (field-independent basis, Debye-Ang):
   XX=           -142.7112   YY=           -229.2687   ZZ=           -258.9243
   XY=            -14.3422   XZ=             10.2578   YZ=             10.8753

 Normal termination of Gaussian 16 at Sat Jan 20 20:18:55 2018.
