 Gaussian 16, Revision A.03,
 Gaussian 16:  EM64L-G16RevA.03 25-Dec-2016

 ---------------------------------------
 #p wb97xd/cc-pvdz sp scf=(maxcycles=20)
 ---------------------------------------

 ------------------
 Base pair stacking
 ------------------
 Symbolic Z-matrix:
 Charge =  0 Multiplicity = 1

                         Standard orientation:
 ---------------------------------------------------------------------
 Center     Atomic      Atomic             Coordinates (Angstroms)
 Number     Number       Type             X           Y           Z
 ---------------------------------------------------------------------
      1          7           0        6.306075   -1.104373   -0.665771
      2          6           0        7.622638   -0.443777   -0.574867
      3          6           0        4.151291   -1.485696   -0.886720
      4          7           0        4.745954   -2.723168   -0.687297
      5          6           0        6.020330   -2.443911   -0.562167
      6          1           0        6.803218   -3.183404   -0.391352
      7          7           0        2.560290    0.216204   -1.254384
      8          6           0        3.583990    1.075489   -1.219327
      9          1           0        3.317510    2.122208   -1.359450
     10          7           0        4.881370    0.837043   -1.038036
     11          6           0        5.100301   -0.478336   -0.875965
     12          6           0        2.813419   -1.100361   -1.088047
     13          7           0        1.792845   -1.959667   -1.122716
     14          1           0        1.933714   -2.943215   -1.004287
     15          1           0        0.853186   -1.649793   -1.268167
     16          1           0        8.224040   -0.795951   -1.292138
     17          1           0        7.510083    0.542708   -0.690184
     18          1           0        8.029684   -0.628807    0.319603
     19          7           0        3.678228    1.629617    1.402443
     20          6           0        2.318000    1.664592    1.211061
     21          6           0        4.618726    2.710431    1.044674
     22          7           0       -0.521999    3.329936    0.105282
     23          1           0       -1.505340    3.157596    0.054573
     24          1           0       -0.196995    4.209648   -0.242869
     25          7           0        1.617740    2.684005    0.668407
     26          6           0        0.323627    2.422743    0.616965
     27          7           0       -0.243336    1.253267    1.062345
     28          1           0       -1.242289    1.139963    0.983446
     29          6           0        0.457859    0.190930    1.624166
     30          8           0       -0.150055   -0.821042    1.994402
     31          6           0        1.849373    0.456904    1.686112
     32          7           0        2.894357   -0.320623    2.166061
     33          6           0        3.957016    0.413877    1.977686
     34          1           0        4.972467    0.115964    2.241097
     35          1           0        5.285839    2.368772    0.383587
     36          1           0        4.111378    3.471035    0.641741
     37          1           0        5.094288    3.025865    1.865134
     38          1           0       -6.164049    0.934032   -0.276142
     39          1           0       -6.400949    1.377300    1.412657
     40          1           0       -4.973875    1.944425    0.544797
     41          1           0       -5.430901   -3.313628    1.860789
     42          6           0       -4.904067   -2.375042    1.688333
     43          8           0       -2.769501   -3.262381    2.220664
     44          6           0       -3.486040   -2.323746    1.873782
     45          1           0       -1.918559   -1.013800    1.749837
     46          7           0       -2.918806   -1.089341    1.629358
     47          8           0       -2.975965    1.104523    1.045509
     48          6           0       -3.565915    0.055918    1.237977
     49          1           0       -6.641089   -1.260954    1.152248
     50          6           0       -5.563031   -1.274590    1.307054
     51          6           0       -5.666115    1.124090    0.663004
     52          7           0       -4.931794   -0.073544    1.080363
     53          1           0       -4.622512    3.253573   -2.619695
     54          1           0       -3.458086    3.336335   -1.479795
     55          1           0       -5.012751    3.099957   -1.042500
     56          1           0       -1.535260   -3.425738   -1.659950
     57          1           0       -3.183546   -3.217222   -2.046914
     58          7           0       -2.308455   -2.805109   -1.790817
     59          6           0       -2.179385   -1.486384   -1.631169
     60          6           0       -2.946226    0.765919   -1.602387
     61          7           0       -1.758907    1.291480   -1.258168
     62          1           0        0.151285    0.673359   -0.846193
     63          6           0       -0.844807    0.332491   -1.125274
     64          7           0       -0.972105   -0.988854   -1.284742
     65          1           0       -6.084026    0.735171   -2.380480
     66          6           0       -5.049890    0.477549   -2.149986
     67          7           0       -4.567992   -0.741242   -2.149023
     68          6           0       -3.235000   -0.572636   -1.803411
     69          6           0       -4.319837    2.898904   -1.735058
     70          7           0       -4.123439    1.439176   -1.827965
 ---------------------------------------------------------------------

 SCF Done:  E(RwB97XD) =  -2048.70242493     A.U. after   15 cycles

 The electronic state is 1-A.
 Alpha  occ. eigenvalues --  -19.25600 -19.21758 -19.20406 -14.52357 -14.52203
 Alpha  occ. eigenvalues --  -14.49623 -14.48083 -14.47760 -14.47677 -14.46272
 Alpha  occ. eigenvalues --  -14.45673 -14.45250 -14.43823 -14.43575 -14.43182
 Alpha  occ. eigenvalues --  -14.42172 -14.41671 -14.41655 -14.40978 -14.40490
 Alpha  occ. eigenvalues --  -10.45277 -10.40649 -10.39879 -10.39580 -10.37830
 Alpha  occ. eigenvalues --  -10.37803 -10.37559 -10.36916 -10.36293 -10.35418
 Alpha  occ. eigenvalues --  -10.35277 -10.34802 -10.34390 -10.34170 -10.33861
 Alpha  occ. eigenvalues --  -10.33767 -10.32959 -10.32170 -10.31877 -10.30833
 Alpha  occ. eigenvalues --  -10.29278 -10.29136 -10.27568  -1.19444  -1.15013
 Alpha  occ. eigenvalues --   -1.13012  -1.12798  -1.12181  -1.10251  -1.09294
 Alpha  occ. eigenvalues --   -1.08863  -1.08174  -1.05894  -1.04461  -1.02348
 Alpha  occ. eigenvalues --   -1.01416  -1.00843  -0.99163  -0.98285  -0.97798
 Alpha  occ. eigenvalues --   -0.96473  -0.96046  -0.93601  -0.90883  -0.87615
 Alpha  occ. eigenvalues --   -0.86052  -0.84830  -0.83870  -0.83518  -0.83159
 Alpha  occ. eigenvalues --   -0.81581  -0.78717  -0.76896  -0.74807  -0.74248
 Alpha  occ. eigenvalues --   -0.73732  -0.73308  -0.73147  -0.71948  -0.70314
 Alpha  occ. eigenvalues --   -0.67215  -0.66951  -0.66632  -0.66378  -0.64486
 Alpha  occ. eigenvalues --   -0.64214  -0.63624  -0.63353  -0.62636  -0.61539
 Alpha  occ. eigenvalues --   -0.61326  -0.61044  -0.60675  -0.59513  -0.59379
 Alpha  occ. eigenvalues --   -0.58250  -0.57911  -0.57757  -0.57353  -0.56654
 Alpha  occ. eigenvalues --   -0.56214  -0.55961  -0.55372  -0.54900  -0.54609
 Alpha  occ. eigenvalues --   -0.54083  -0.53592  -0.53141  -0.52847  -0.52660
 Alpha  occ. eigenvalues --   -0.52376  -0.52219  -0.52120  -0.51494  -0.50732
 Alpha  occ. eigenvalues --   -0.49915  -0.49672  -0.49222  -0.49033  -0.48744
 Alpha  occ. eigenvalues --   -0.48367  -0.48324  -0.47921  -0.47760  -0.47093
 Alpha  occ. eigenvalues --   -0.46937  -0.45612  -0.45164  -0.44287  -0.43305
 Alpha  occ. eigenvalues --   -0.41804  -0.40806  -0.39442  -0.38096  -0.37639
 Alpha  occ. eigenvalues --   -0.37525  -0.37009  -0.36919  -0.35714  -0.34620
 Alpha  occ. eigenvalues --   -0.34331  -0.34036  -0.33873  -0.32948  -0.32886
 Alpha  occ. eigenvalues --   -0.32412  -0.31912  -0.31769  -0.31575  -0.31522
 Alpha  occ. eigenvalues --   -0.31178  -0.29229  -0.26436  -0.24723
 Alpha virt. eigenvalues --    0.03185   0.04372   0.06930   0.07354   0.08225
 Alpha virt. eigenvalues --    0.08787   0.09963   0.10359   0.11269   0.12052
 Alpha virt. eigenvalues --    0.13156   0.13452   0.14030   0.14673   0.14726

 Mulliken charges:
               1
     1  N   -0.312055
     2  C    0.177670
     3  C    0.068328
     4  N   -0.257086
     5  C    0.131878
     6  H    0.028507
     7  N   -0.271978
     8  C    0.139124
     9  H    0.016765
    10  N   -0.289619
    11  C    0.227831
    12  C    0.097524
    13  N   -0.048303
    14  H    0.108447
    15  H    0.088202
    16  H    0.028942
    17  H    0.035352
    18  H    0.026542
    19  N   -0.276963
    20  C    0.207127
    21  C    0.179382
    22  N   -0.080068
    23  H    0.114384
    24  H    0.108593
    25  N   -0.286407
    26  C    0.187411
    27  N   -0.145189
    28  H    0.135996
    29  C    0.149246
    30  O   -0.323398
    31  C    0.028134
    32  N   -0.219050
    33  C    0.119357
    34  H    0.017241
    35  H    0.021377
    36  H    0.023550
    37  H    0.015179
    38  H    0.037888
    39  H    0.060145
    40  H    0.070673
    41  H    0.029497
    42  C   -0.110519
    43  O   -0.265543
    44  C    0.178657
    45  H    0.131631
    46  N   -0.127454
    47  O   -0.335036
    48  C    0.341109
    49  H    0.045340
    50  C    0.178247
    51  C    0.047051
    52  N   -0.280208
    53  H    0.035545
    54  H    0.030967
    55  H    0.018094
    56  H    0.121796
    57  H    0.119900
    58  N   -0.064681
    59  C    0.119427
    60  C    0.234070
    61  N   -0.293614
    62  H    0.042504
    63  C    0.165851
    64  N   -0.306944
    65  H    0.042478
    66  C    0.095857
    67  N   -0.242422
    68  C    0.016657
    69  C    0.183581
    70  N   -0.292518
 Sum of Mulliken charges =  -0.00000

 Dipole moment (field-independent basis, Debye):
    X=             -5.7168    Y=              6.0060    Z=             -4.5068  Tot=              9.4374
 Quadrupole moment (field-independent basis, Debye-Ang):
   XX=           -144.6092   YY=           -228.8527   ZZ=           -259.5760
   XY=            -12.9137   XZ=              7.5568   YZ=             11.4944

 Normal termination of Gaussian 16 at Sat Jan 20 19:30:44 2018.
