 Gaussian 16, Revision A.03,
 Gaussian 16:  EM64L-G16RevA.03 25-Dec-2016

 ---------------------------------------
 #p wb97xd/cc-pvdz sp scf=(maxcycles=20)
 ---------------------------------------

 ------------------
 Base pair stacking
 ------------------
 Symbolic Z-matrix:
 Charge =  0 Multiplicity = 1

                         Standard orientation:
 ---------------------------------------------------------------------
 Center     Atomic      Atomic             Coordinates (Angstroms)
 Number     Number       Type             X           Y           Z
 ---------------------------------------------------------------------
      1          7           0        4.553362   -1.597922   -1.729736
      2          6           0        5.877970   -1.094285   -2.141775
      3          6           0        2.393480   -1.788586   -1.361092
      4          7           0        2.974088   -2.951599   -0.876288
      5          6           0        4.252091   -2.790185   -1.117785
      6          1           0        5.026715   -3.515846   -0.868168
      7          7           0        0.821578   -0.133620   -1.955346
      8          6           0        1.855518    0.570910   -2.426709
      9          1           0        1.601009    1.537682   -2.858956
     10          7           0        3.150562    0.261964   -2.444210
     11          6           0        3.354409   -0.944640   -1.890142
     12          6           0        1.059615   -1.343743   -1.403960
     13          7           0        0.028817   -2.048520   -0.932878
     14          1           0        0.158400   -2.949071   -0.516447
     15          1           0       -0.907578   -1.700564   -0.980123
     16          1           0        6.285413   -1.725343   -2.802040
     17          1           0        5.776747   -0.193096   -2.562152
     18          1           0        6.473103   -1.021932   -1.341418
     19          7           0        5.450236    1.496962    0.734665
     20          6           0        4.084589    1.623744    0.818295
     21          6           0        6.379210    2.551054    0.280161
     22          7           0        1.211261    3.533753    0.421277
     23          1           0        0.226719    3.421206    0.552673
     24          1           0        1.525289    4.421063    0.082490
     25          7           0        3.367696    2.723734    0.501852
     26          6           0        2.072496    2.540025    0.687151
     27          7           0        1.519633    1.369411    1.147065
     28          1           0        0.518623    1.318916    1.258377
     29          6           0        2.238059    0.225011    1.478851
     30          8           0        1.641921   -0.780117    1.885123
     31          6           0        3.630944    0.407101    1.284970
     32          7           0        4.690477   -0.465924    1.490207
     33          6           0        5.746837    0.222197    1.151384
     34          1           0        6.770089   -0.153289    1.186531
     35          1           0        6.880960    2.231816   -0.523035
     36          1           0        5.859520    3.370772    0.042990
     37          1           0        7.024655    2.767056    1.011985
     38          1           0       -4.555306    1.496315    0.981776
     39          1           0       -4.431482    1.803339    2.712402
     40          1           0       -3.160753    2.363941    1.625052
     41          1           0       -3.730428   -2.955286    2.609470
     42          6           0       -3.180931   -2.035879    2.407045
     43          8           0       -1.052683   -3.083047    2.440534
     44          6           0       -1.753690   -2.079534    2.312664
     45          1           0       -0.149795   -0.852610    1.980240
     46          7           0       -1.157371   -0.861859    2.053979
     47          8           0       -1.168949    1.374280    1.658105
     48          6           0       -1.784232    0.347196    1.884340
     49          1           0       -4.904602   -0.784868    2.308435
     50          6           0       -3.820647   -0.871615    2.246269
     51          6           0       -3.874131    1.576028    1.815869
     52          7           0       -3.160653    0.307791    1.989817
     53          1           0       -6.371006    3.071461   -2.777822
     54          1           0       -4.973390    3.391053   -1.998967
     55          1           0       -6.393078    3.484198   -1.199036
     56          1           0       -3.383152   -3.230359   -0.243012
     57          1           0       -5.067864   -2.977525   -0.332105
     58          7           0       -4.143358   -2.604370   -0.417297
     59          6           0       -3.934623   -1.328513   -0.748652
     60          6           0       -4.594385    0.880808   -1.336303
     61          7           0       -3.341960    1.354503   -1.443386
     62          1           0       -1.411238    0.696127   -1.244729
     63          6           0       -2.456190    0.395816   -1.180244
     64          7           0       -2.663258   -0.882631   -0.848189
     65          1           0       -7.826111    0.947060   -1.397515
     66          6           0       -6.776423    0.665375   -1.309495
     67          7           0       -6.350505   -0.532209   -0.990020
     68          6           0       -4.968661   -0.409402   -1.003430
     69          6           0       -5.885624    2.992921   -1.907061
     70          7           0       -5.767442    1.570253   -1.532813
 ---------------------------------------------------------------------

 SCF Done:  E(RwB97XD) =  -2048.74987011     A.U. after   15 cycles

 The electronic state is 1-A.
 Alpha  occ. eigenvalues --  -19.25346 -19.21658 -19.20697 -14.52741 -14.51833
 Alpha  occ. eigenvalues --  -14.49300 -14.48356 -14.48283 -14.47309 -14.46919
 Alpha  occ. eigenvalues --  -14.46759 -14.45620 -14.44706 -14.44684 -14.42590
 Alpha  occ. eigenvalues --  -14.42119 -14.41542 -14.41058 -14.40832 -14.40572
 Alpha  occ. eigenvalues --  -10.44919 -10.41351 -10.40241 -10.39714 -10.38379
 Alpha  occ. eigenvalues --  -10.38195 -10.37542 -10.37158 -10.36201 -10.35611
 Alpha  occ. eigenvalues --  -10.34702 -10.34426 -10.34057 -10.33934 -10.33644
 Alpha  occ. eigenvalues --  -10.33234 -10.33220 -10.33051 -10.31404 -10.30781
 Alpha  occ. eigenvalues --  -10.30539 -10.28470 -10.28417  -1.18898  -1.15501
 Alpha  occ. eigenvalues --   -1.13367  -1.12642  -1.11006  -1.10950  -1.09680
 Alpha  occ. eigenvalues --   -1.08754  -1.08623  -1.05201  -1.05119  -1.01955
 Alpha  occ. eigenvalues --   -1.01190  -1.00574  -0.99847  -0.98759  -0.97239
 Alpha  occ. eigenvalues --   -0.97006  -0.96624  -0.92886  -0.90494  -0.87940
 Alpha  occ. eigenvalues --   -0.86115  -0.84521  -0.83745  -0.83061  -0.82860
 Alpha  occ. eigenvalues --   -0.82162  -0.78361  -0.77297  -0.75151  -0.74934
 Alpha  occ. eigenvalues --   -0.73779  -0.72867  -0.72816  -0.71053  -0.70664
 Alpha  occ. eigenvalues --   -0.67593  -0.67062  -0.66261  -0.66049  -0.64574
 Alpha  occ. eigenvalues --   -0.64454  -0.63563  -0.62767  -0.62712  -0.61990
 Alpha  occ. eigenvalues --   -0.60873  -0.60672  -0.60457  -0.59650  -0.59049
 Alpha  occ. eigenvalues --   -0.58932  -0.58494  -0.57375  -0.56546  -0.55887
 Alpha  occ. eigenvalues --   -0.55773  -0.55660  -0.55407  -0.54484  -0.54204
 Alpha  occ. eigenvalues --   -0.53854  -0.53808  -0.53490  -0.53169  -0.53061
 Alpha  occ. eigenvalues --   -0.52749  -0.51835  -0.51612  -0.50603  -0.50378
 Alpha  occ. eigenvalues --   -0.50368  -0.50030  -0.49532  -0.49236  -0.48920
 Alpha  occ. eigenvalues --   -0.48854  -0.48349  -0.48181  -0.47944  -0.47247
 Alpha  occ. eigenvalues --   -0.46887  -0.45832  -0.45670  -0.44913  -0.42577
 Alpha  occ. eigenvalues --   -0.41219  -0.40967  -0.39061  -0.38194  -0.37858
 Alpha  occ. eigenvalues --   -0.37572  -0.37419  -0.36998  -0.35666  -0.35020
 Alpha  occ. eigenvalues --   -0.34628  -0.34167  -0.33405  -0.33355  -0.33109
 Alpha  occ. eigenvalues --   -0.32856  -0.32707  -0.32025  -0.31396  -0.30762
 Alpha  occ. eigenvalues --   -0.30500  -0.30217  -0.26119  -0.25501
 Alpha virt. eigenvalues --    0.02720   0.04352   0.06637   0.07899   0.08697
 Alpha virt. eigenvalues --    0.09032   0.09659   0.10271   0.10912   0.12232
 Alpha virt. eigenvalues --    0.13008   0.13604   0.14145   0.14551   0.14812

 Mulliken charges:
               1
     1  N   -0.302595
     2  C    0.183707
     3  C    0.054579
     4  N   -0.251940
     5  C    0.151458
     6  H    0.026773
     7  N   -0.293113
     8  C    0.126533
     9  H    0.009451
    10  N   -0.281006
    11  C    0.237956
    12  C    0.081382
    13  N   -0.059224
    14  H    0.117285
    15  H    0.087029
    16  H    0.025178
    17  H    0.030957
    18  H    0.013767
    19  N   -0.309380
    20  C    0.263020
    21  C    0.183205
    22  N   -0.122899
    23  H    0.119716
    24  H    0.118895
    25  N   -0.308543
    26  C    0.243989
    27  N   -0.139298
    28  H    0.120808
    29  C    0.188412
    30  O   -0.319501
    31  C   -0.016933
    32  N   -0.219992
    33  C    0.105466
    34  H    0.026423
    35  H    0.022160
    36  H    0.032749
    37  H    0.025624
    38  H    0.056855
    39  H    0.055544
    40  H    0.075970
    41  H    0.018294
    42  C   -0.105691
    43  O   -0.272391
    44  C    0.170139
    45  H    0.131345
    46  N   -0.121196
    47  O   -0.350170
    48  C    0.341116
    49  H    0.045642
    50  C    0.161529
    51  C    0.047495
    52  N   -0.274691
    53  H    0.035351
    54  H    0.041945
    55  H    0.028939
    56  H    0.125107
    57  H    0.116760
    58  N   -0.050982
    59  C    0.086037
    60  C    0.208350
    61  N   -0.258417
    62  H    0.030883
    63  C    0.168414
    64  N   -0.309040
    65  H    0.039167
    66  C    0.136099
    67  N   -0.256246
    68  C    0.030471
    69  C    0.179715
    70  N   -0.304441
 Sum of Mulliken charges =  -0.00000

 Dipole moment (field-independent basis, Debye):
    X=             -6.4015    Y=              7.5107    Z=             -2.1242  Tot=             10.0946
 Quadrupole moment (field-independent basis, Debye-Ang):
   XX=           -150.8575   YY=           -225.4521   ZZ=           -256.0749
   XY=             -3.5621   XZ=            -11.5440   YZ=              8.4538

 Normal termination of Gaussian 16 at Sun Jan 21 02:06:03 2018.
