 Gaussian 16, Revision A.03,
 Gaussian 16:  EM64L-G16RevA.03 25-Dec-2016

 ---------------------------------------
 #p wb97xd/cc-pvdz sp scf=(maxcycles=20)
 ---------------------------------------

 ------------------
 Base pair stacking
 ------------------
 Symbolic Z-matrix:
 Charge =  0 Multiplicity = 1

                         Standard orientation:
 ---------------------------------------------------------------------
 Center     Atomic      Atomic             Coordinates (Angstroms)
 Number     Number       Type             X           Y           Z
 ---------------------------------------------------------------------
      1          7           0        6.034949   -1.146268   -0.849301
      2          6           0        7.359482   -0.498332   -0.787762
      3          6           0        3.871856   -1.506509   -1.018284
      4          7           0        4.459752   -2.750519   -0.840661
      5          6           0        5.739401   -2.483692   -0.745961
      6          1           0        6.519398   -3.231316   -0.598900
      7          7           0        2.288100    0.212026   -1.336553
      8          6           0        3.320332    1.061661   -1.322428
      9          1           0        3.060194    2.111573   -1.450038
     10          7           0        4.619550    0.810264   -1.175022
     11          6           0        4.830185   -0.507976   -1.025747
     12          6           0        2.533015   -1.107744   -1.183898
     13          7           0        1.503937   -1.957426   -1.197724
     14          1           0        1.638537   -2.942880   -1.088295
     15          1           0        0.563855   -1.638101   -1.317862
     16          1           0        7.939443   -0.851871   -1.521810
     17          1           0        7.253291    0.489803   -0.894766
     18          1           0        7.787018   -0.692226    0.095194
     19          7           0        3.975470    1.575209    1.338955
     20          6           0        2.611279    1.623782    1.181926
     21          6           0        4.916779    2.649383    0.963719
     22          7           0       -0.239830    3.321479    0.156858
     23          1           0       -1.225706    3.158474    0.129863
     24          1           0        0.084554    4.200146   -0.194457
     25          7           0        1.907195    2.652685    0.662616
     26          6           0        0.609829    2.403627    0.642172
     27          7           0        0.043294    1.236853    1.095162
     28          1           0       -0.958330    1.133197    1.040686
     29          6           0        0.748383    0.164916    1.633352
     30          8           0        0.140510   -0.843550    2.013116
     31          6           0        2.143435    0.417729    1.661885
     32          7           0        3.192797   -0.372112    2.111197
     33          6           0        4.257215    0.353673    1.900321
     34          1           0        5.276108    0.044941    2.136549
     35          1           0        5.563932    2.305427    0.284241
     36          1           0        4.406632    3.416916    0.577825
     37          1           0        5.415632    2.955703    1.773727
     38          1           0       -5.911762    0.979730   -0.096296
     39          1           0       -6.102210    1.415423    1.600337
     40          1           0       -4.692052    1.974412    0.700128
     41          1           0       -5.165048   -3.286708    1.998099
     42          6           0       -4.633957   -2.352024    1.817696
     43          8           0       -2.495125   -3.261986    2.291466
     44          6           0       -3.211321   -2.314823    1.967835
     45          1           0       -1.635279   -1.018638    1.811889
     46          7           0       -2.638891   -1.084294    1.716082
     47          8           0       -2.690166    1.113326    1.145974
     48          6           0       -3.284871    0.069094    1.347384
     49          1           0       -6.373376   -1.218960    1.331466
     50          6           0       -5.291956   -1.243394    1.459125
     51          6           0       -5.388746    1.159798    0.831127
     52          7           0       -4.655410   -0.046913    1.223325
     53          1           0       -4.897952    3.323063   -2.504664
     54          1           0       -3.704666    3.388564   -1.393860
     55          1           0       -5.250046    3.163964   -0.919058
     56          1           0       -1.850089   -3.389749   -1.659485
     57          1           0       -3.505534   -3.163877   -2.003873
     58          7           0       -2.620498   -2.761295   -1.767513
     59          6           0       -2.475191   -1.444757   -1.603867
     60          6           0       -3.220027    0.814286   -1.543433
     61          7           0       -2.019623    1.326929   -1.226177
     62          1           0       -0.105577    0.688934   -0.865608
     63          6           0       -1.111461    0.358840   -1.121529
     64          7           0       -1.255041   -0.960334   -1.285050
     65          1           0       -6.376450    0.816851   -2.242823
     66          6           0       -5.339318    0.548418   -2.039727
     67          7           0       -4.868938   -0.674733   -2.057585
     68          6           0       -3.526212   -0.520375   -1.744541
     69          6           0       -4.576576    2.960532   -1.629854
     70          7           0       -4.396185    1.499620   -1.735713
 ---------------------------------------------------------------------

 SCF Done:  E(RwB97XD) =  -2048.70442147     A.U. after   15 cycles

 The electronic state is 1-A.
 Alpha  occ. eigenvalues --  -19.25373 -19.21585 -19.20442 -14.52438 -14.52132
 Alpha  occ. eigenvalues --  -14.49484 -14.48019 -14.47963 -14.47452 -14.46533
 Alpha  occ. eigenvalues --  -14.45955 -14.45684 -14.44163 -14.44123 -14.43086
 Alpha  occ. eigenvalues --  -14.42006 -14.41667 -14.41406 -14.40752 -14.40492
 Alpha  occ. eigenvalues --  -10.44976 -10.40845 -10.39817 -10.39705 -10.38132
 Alpha  occ. eigenvalues --  -10.37941 -10.37391 -10.37222 -10.36105 -10.35317
 Alpha  occ. eigenvalues --  -10.34965 -10.34650 -10.34484 -10.33974 -10.33740
 Alpha  occ. eigenvalues --  -10.33485 -10.32914 -10.32637 -10.31871 -10.30650
 Alpha  occ. eigenvalues --  -10.29498 -10.29073 -10.27611  -1.19264  -1.15407
 Alpha  occ. eigenvalues --   -1.13020  -1.12631  -1.12016  -1.10227  -1.09318
 Alpha  occ. eigenvalues --   -1.08899  -1.08254  -1.05710  -1.04722  -1.02149
 Alpha  occ. eigenvalues --   -1.01238  -1.01179  -0.99289  -0.98342  -0.97666
 Alpha  occ. eigenvalues --   -0.96742  -0.96092  -0.93395  -0.90693  -0.87907
 Alpha  occ. eigenvalues --   -0.86295  -0.84670  -0.83668  -0.83563  -0.83038
 Alpha  occ. eigenvalues --   -0.81697  -0.78527  -0.77195  -0.75092  -0.74246
 Alpha  occ. eigenvalues --   -0.73635  -0.73307  -0.73035  -0.71711  -0.70557
 Alpha  occ. eigenvalues --   -0.67069  -0.67003  -0.66856  -0.66218  -0.64424
 Alpha  occ. eigenvalues --   -0.64411  -0.63579  -0.63309  -0.62592  -0.61804
 Alpha  occ. eigenvalues --   -0.61391  -0.60991  -0.60741  -0.59670  -0.59302
 Alpha  occ. eigenvalues --   -0.58098  -0.57971  -0.57698  -0.57261  -0.56558
 Alpha  occ. eigenvalues --   -0.56135  -0.55957  -0.55516  -0.54592  -0.54427
 Alpha  occ. eigenvalues --   -0.53897  -0.53782  -0.53233  -0.53094  -0.52749
 Alpha  occ. eigenvalues --   -0.52576  -0.52323  -0.52112  -0.51405  -0.50699
 Alpha  occ. eigenvalues --   -0.49841  -0.49659  -0.49257  -0.49091  -0.48700
 Alpha  occ. eigenvalues --   -0.48447  -0.48240  -0.47967  -0.47681  -0.47069
 Alpha  occ. eigenvalues --   -0.46840  -0.45542  -0.45265  -0.44532  -0.43061
 Alpha  occ. eigenvalues --   -0.41540  -0.40904  -0.39336  -0.37973  -0.37812
 Alpha  occ. eigenvalues --   -0.37678  -0.37183  -0.36844  -0.35990  -0.34629
 Alpha  occ. eigenvalues --   -0.34222  -0.34050  -0.33918  -0.33115  -0.32821
 Alpha  occ. eigenvalues --   -0.32400  -0.32285  -0.31807  -0.31568  -0.31174
 Alpha  occ. eigenvalues --   -0.30897  -0.29376  -0.26126  -0.24852
 Alpha virt. eigenvalues --    0.03286   0.04069   0.06681   0.07185   0.08128
 Alpha virt. eigenvalues --    0.08582   0.10069   0.10685   0.11078   0.12240
 Alpha virt. eigenvalues --    0.13210   0.13830   0.13964   0.14282   0.14756

 Mulliken charges:
               1
     1  N   -0.311184
     2  C    0.175179
     3  C    0.074747
     4  N   -0.256804
     5  C    0.131939
     6  H    0.027899
     7  N   -0.279377
     8  C    0.144044
     9  H    0.017063
    10  N   -0.285617
    11  C    0.224332
    12  C    0.092873
    13  N   -0.050619
    14  H    0.108641
    15  H    0.086862
    16  H    0.029286
    17  H    0.036336
    18  H    0.026162
    19  N   -0.268998
    20  C    0.186629
    21  C    0.186202
    22  N   -0.094116
    23  H    0.113192
    24  H    0.111692
    25  N   -0.286165
    26  C    0.202924
    27  N   -0.145997
    28  H    0.130356
    29  C    0.165236
    30  O   -0.322954
    31  C    0.017644
    32  N   -0.218190
    33  C    0.120648
    34  H    0.014300
    35  H    0.018571
    36  H    0.024577
    37  H    0.015987
    38  H    0.033035
    39  H    0.056611
    40  H    0.065815
    41  H    0.027813
    42  C   -0.112294
    43  O   -0.266465
    44  C    0.176104
    45  H    0.131445
    46  N   -0.124713
    47  O   -0.329254
    48  C    0.333824
    49  H    0.044536
    50  C    0.175864
    51  C    0.058922
    52  N   -0.278245
    53  H    0.037429
    54  H    0.036772
    55  H    0.022235
    56  H    0.122692
    57  H    0.119779
    58  N   -0.064318
    59  C    0.112383
    60  C    0.209068
    61  N   -0.265237
    62  H    0.054680
    63  C    0.134860
    64  N   -0.301063
    65  H    0.043066
    66  C    0.100484
    67  N   -0.242610
    68  C    0.038722
    69  C    0.179511
    70  N   -0.294750
 Sum of Mulliken charges =  -0.00000

 Dipole moment (field-independent basis, Debye):
    X=             -5.8592    Y=              6.2967    Z=             -4.4723  Tot=              9.6944
 Quadrupole moment (field-independent basis, Debye-Ang):
   XX=           -146.2615   YY=           -228.6075   ZZ=           -260.0502
   XY=            -11.4271   XZ=              4.6585   YZ=             12.3018

 Normal termination of Gaussian 16 at Sat Jan 20 18:42:18 2018.
