 Gaussian 16, Revision A.03,
 Gaussian 16:  EM64L-G16RevA.03 25-Dec-2016

 ---------------------------------------
 #p wb97xd/cc-pvdz sp scf=(maxcycles=20)
 ---------------------------------------

 ------------------
 Base pair stacking
 ------------------
 Symbolic Z-matrix:
 Charge =  0 Multiplicity = 1

                         Standard orientation:
 ---------------------------------------------------------------------
 Center     Atomic      Atomic             Coordinates (Angstroms)
 Number     Number       Type             X           Y           Z
 ---------------------------------------------------------------------
      1          7           0        5.184802   -1.152838   -1.425716
      2          6           0        6.525591   -0.536278   -1.437081
      3          6           0        3.006832   -1.458995   -1.431626
      4          7           0        3.576306   -2.723141   -1.382982
      5          6           0        4.865667   -2.488096   -1.381372
      6          1           0        5.636324   -3.258775   -1.348479
      7          7           0        1.445373    0.307164   -1.505446
      8          6           0        2.496046    1.133745   -1.526380
      9          1           0        2.252423    2.194586   -1.565417
     10          7           0        3.796375    0.847976   -1.506435
     11          6           0        3.985796   -0.481026   -1.458422
     12          6           0        1.669195   -1.024238   -1.457080
     13          7           0        0.621686   -1.850942   -1.436114
     14          1           0        0.740341   -2.843851   -1.400422
     15          1           0       -0.316882   -1.506187   -1.455366
     16          1           0        7.032871   -0.853088   -2.238634
     17          1           0        6.435509    0.458583   -1.472634
     18          1           0        7.020770   -0.795005   -0.607708
     19          7           0        4.858111    1.351726    1.084740
     20          6           0        3.487179    1.437031    1.048085
     21          6           0        5.791119    2.429200    0.698424
     22          7           0        0.603387    3.252760    0.378334
     23          1           0       -0.385031    3.111182    0.425457
     24          1           0        0.918983    4.145724    0.056241
     25          7           0        2.767921    2.510847    0.656141
     26          6           0        1.467594    2.289080    0.730993
     27          7           0        0.912122    1.106879    1.156831
     28          1           0       -0.092819    1.026584    1.181700
     29          6           0        1.632901   -0.011117    1.564790
     30          8           0        1.034050   -1.029851    1.931237
     31          6           0        3.031299    0.211958    1.489867
     32          7           0        4.094617   -0.625589    1.797690
     33          6           0        5.155372    0.091279    1.542511
     34          1           0        6.182473   -0.251938    1.671131
     35          1           0        6.370158    2.117117   -0.053988
     36          1           0        5.269710    3.229846    0.406244
     37          1           0        6.363706    2.672866    1.480454
     38          1           0       -5.126487    1.043750    0.464356
     39          1           0       -5.162894    1.372883    2.194962
     40          1           0       -3.819768    1.960971    1.214398
     41          1           0       -4.313402   -3.362571    2.216448
     42          6           0       -3.776154   -2.428783    2.050165
     43          8           0       -1.628491   -3.409096    2.281782
     44          6           0       -2.345451   -2.429207    2.080341
     45          1           0       -0.756180   -1.156792    1.871784
     46          7           0       -1.765614   -1.196466    1.858098
     47          8           0       -1.809658    1.033900    1.432997
     48          6           0       -2.411256   -0.009288    1.618730
     49          1           0       -5.521403   -1.232891    1.786010
     50          6           0       -4.434034   -1.286673    1.819115
     51          6           0       -4.523133    1.153420    1.353179
     52          7           0       -3.789834   -0.090180    1.605118
     53          1           0       -5.733412    3.627165   -1.858997
     54          1           0       -4.449825    3.597577   -0.852201
     55          1           0       -5.955018    3.373169   -0.262186
     56          1           0       -2.793993   -3.184561   -1.698528
     57          1           0       -4.466344   -2.904585   -1.885536
     58          7           0       -3.554811   -2.535482   -1.700881
     59          6           0       -3.363439   -1.235322   -1.468229
     60          6           0       -4.043902    1.029295   -1.203283
     61          7           0       -2.808673    1.496819   -0.958225
     62          1           0       -0.887657    0.799537   -0.802981
     63          6           0       -1.919406    0.506391   -0.992229
     64          7           0       -2.109098   -0.796448   -1.225074
     65          1           0       -7.246851    1.138741   -1.629128
     66          6           0       -6.203360    0.837510   -1.532504
     67          7           0       -5.766836   -0.390930   -1.666892
     68          6           0       -4.399139   -0.283392   -1.460592
     69          6           0       -5.348888    3.202801   -1.039204
     70          7           0       -5.214562    1.748496   -1.251228
 ---------------------------------------------------------------------

 SCF Done:  E(RwB97XD) =  -2048.69528220     A.U. after   15 cycles

 The electronic state is 1-A.
 Alpha  occ. eigenvalues --  -19.24969 -19.21367 -19.20517 -14.52654 -14.51715
 Alpha  occ. eigenvalues --  -14.48864 -14.48701 -14.48525 -14.47215 -14.46758
 Alpha  occ. eigenvalues --  -14.46504 -14.46024 -14.44824 -14.44529 -14.42976
 Alpha  occ. eigenvalues --  -14.41790 -14.41418 -14.41028 -14.41012 -14.40686
 Alpha  occ. eigenvalues --  -10.44685 -10.41052 -10.40416 -10.39487 -10.38419
 Alpha  occ. eigenvalues --  -10.38113 -10.37551 -10.37110 -10.36440 -10.35897
 Alpha  occ. eigenvalues --  -10.34523 -10.34273 -10.34120 -10.33554 -10.33544
 Alpha  occ. eigenvalues --  -10.33475 -10.33134 -10.33038 -10.31568 -10.30879
 Alpha  occ. eigenvalues --  -10.30536 -10.28661 -10.28078  -1.18981  -1.16024
 Alpha  occ. eigenvalues --   -1.13187  -1.12418  -1.11465  -1.10539  -1.09788
 Alpha  occ. eigenvalues --   -1.08700  -1.08544  -1.05516  -1.05285  -1.01850
 Alpha  occ. eigenvalues --   -1.01571  -1.00974  -0.99709  -0.98500  -0.97431
 Alpha  occ. eigenvalues --   -0.97142  -0.96588  -0.93224  -0.90428  -0.88256
 Alpha  occ. eigenvalues --   -0.86498  -0.84342  -0.84071  -0.83040  -0.82765
 Alpha  occ. eigenvalues --   -0.82435  -0.78260  -0.77567  -0.75437  -0.74611
 Alpha  occ. eigenvalues --   -0.73636  -0.73240  -0.72773  -0.71453  -0.70923
 Alpha  occ. eigenvalues --   -0.67434  -0.67295  -0.66705  -0.66112  -0.64790
 Alpha  occ. eigenvalues --   -0.64347  -0.63882  -0.63174  -0.62609  -0.62174
 Alpha  occ. eigenvalues --   -0.61793  -0.61046  -0.60873  -0.60034  -0.59102
 Alpha  occ. eigenvalues --   -0.58532  -0.58336  -0.58005  -0.57014  -0.56325
 Alpha  occ. eigenvalues --   -0.55911  -0.55879  -0.55545  -0.54538  -0.54321
 Alpha  occ. eigenvalues --   -0.54141  -0.53918  -0.53364  -0.53233  -0.52919
 Alpha  occ. eigenvalues --   -0.52624  -0.52073  -0.51940  -0.51002  -0.50500
 Alpha  occ. eigenvalues --   -0.50157  -0.49925  -0.49322  -0.49192  -0.48786
 Alpha  occ. eigenvalues --   -0.48520  -0.48129  -0.48033  -0.47847  -0.47291
 Alpha  occ. eigenvalues --   -0.46994  -0.45513  -0.45024  -0.44897  -0.42338
 Alpha  occ. eigenvalues --   -0.41330  -0.41157  -0.38955  -0.38048  -0.37801
 Alpha  occ. eigenvalues --   -0.37687  -0.37138  -0.36892  -0.35928  -0.35263
 Alpha  occ. eigenvalues --   -0.34832  -0.34404  -0.33886  -0.33320  -0.32841
 Alpha  occ. eigenvalues --   -0.32442  -0.32164  -0.31792  -0.31312  -0.31025
 Alpha  occ. eigenvalues --   -0.30569  -0.29808  -0.25960  -0.25326
 Alpha virt. eigenvalues --    0.03328   0.03703   0.06777   0.07586   0.08737
 Alpha virt. eigenvalues --    0.09112   0.09696   0.09886   0.10918   0.12752
 Alpha virt. eigenvalues --    0.12916   0.13716   0.14171   0.14207   0.14460

 Mulliken charges:
               1
     1  N   -0.303289
     2  C    0.177555
     3  C    0.078518
     4  N   -0.259144
     5  C    0.140165
     6  H    0.026212
     7  N   -0.277620
     8  C    0.127704
     9  H    0.013875
    10  N   -0.277424
    11  C    0.228236
    12  C    0.070066
    13  N   -0.050654
    14  H    0.109710
    15  H    0.082871
    16  H    0.029670
    17  H    0.028591
    18  H    0.018192
    19  N   -0.277294
    20  C    0.226090
    21  C    0.190985
    22  N   -0.103338
    23  H    0.120291
    24  H    0.117523
    25  N   -0.276122
    26  C    0.185724
    27  N   -0.102153
    28  H    0.113907
    29  C    0.161340
    30  O   -0.320503
    31  C    0.008637
    32  N   -0.213141
    33  C    0.096325
    34  H    0.019823
    35  H    0.007164
    36  H    0.031881
    37  H    0.023024
    38  H    0.055440
    39  H    0.044705
    40  H    0.075410
    41  H    0.025898
    42  C   -0.100976
    43  O   -0.267672
    44  C    0.172892
    45  H    0.128891
    46  N   -0.114192
    47  O   -0.337326
    48  C    0.325851
    49  H    0.045486
    50  C    0.162780
    51  C    0.064638
    52  N   -0.275265
    53  H    0.038889
    54  H    0.042333
    55  H    0.026425
    56  H    0.122767
    57  H    0.119901
    58  N   -0.061096
    59  C    0.100248
    60  C    0.160134
    61  N   -0.248641
    62  H   -0.000323
    63  C    0.184652
    64  N   -0.300672
    65  H    0.035211
    66  C    0.113629
    67  N   -0.245832
    68  C    0.050468
    69  C    0.179081
    70  N   -0.297133
 Sum of Mulliken charges =  -0.00000

 Dipole moment (field-independent basis, Debye):
    X=             -6.1811    Y=              7.1788    Z=             -3.4279  Tot=             10.0744
 Quadrupole moment (field-independent basis, Debye-Ang):
   XX=           -150.7750   YY=           -229.5696   ZZ=           -258.4215
   XY=             -4.6111   XZ=             -5.8655   YZ=             15.4999

 Normal termination of Gaussian 16 at Sat Jan 20 19:43:31 2018.
