 Gaussian 16, Revision A.03,
 Gaussian 16:  EM64L-G16RevA.03 25-Dec-2016

 ---------------------------------------
 #p wb97xd/cc-pvdz sp scf=(maxcycles=20)
 ---------------------------------------

 ------------------
 Base pair stacking
 ------------------
 Symbolic Z-matrix:
 Charge =  0 Multiplicity = 1

                         Standard orientation:
 ---------------------------------------------------------------------
 Center     Atomic      Atomic             Coordinates (Angstroms)
 Number     Number       Type             X           Y           Z
 ---------------------------------------------------------------------
      1          7           0       -6.653875   -1.217394    0.364437
      2          6           0       -7.985225   -0.630163    0.610758
      3          6           0       -4.488647   -1.603481    0.366480
      4          7           0       -5.059829   -2.600114   -0.411474
      5          6           0       -6.341442   -2.327617   -0.381573
      6          1           0       -7.110894   -2.908741   -0.890671
      7          7           0       -2.928861   -0.258925    1.516349
      8          6           0       -3.970850    0.481649    1.907990
      9          1           0       -3.724546    1.332636    2.541570
     10          7           0       -5.265328    0.329562    1.635786
     11          6           0       -5.458731   -0.743761    0.851580
     12          6           0       -3.156492   -1.332075    0.727924
     13          7           0       -2.117648   -2.072568    0.335943
     14          1           0       -2.239397   -2.875889   -0.248065
     15          1           0       -1.182774   -1.849706    0.612511
     16          1           0       -8.568923   -1.303073    1.065372
     17          1           0       -7.891886    0.176535    1.193546
     18          1           0       -8.400812   -0.364546   -0.259142
     19          7           0       -3.254626    2.205855   -1.340167
     20          6           0       -1.893899    2.179329   -1.150995
     21          6           0       -4.145486    3.325831   -0.975884
     22          7           0        1.019162    3.711418   -0.042594
     23          1           0        1.993929    3.495212    0.005624
     24          1           0        0.734204    4.603110    0.310105
     25          7           0       -1.148088    3.164030   -0.604926
     26          6           0        0.133176    2.845157   -0.556913
     27          7           0        0.646797    1.653645   -1.008574
     28          1           0        1.639831    1.495598   -0.931920
     29          6           0       -0.101892    0.626199   -1.573989
     30          8           0        0.459771   -0.410134   -1.949854
     31          6           0       -1.480260    0.954165   -1.632312
     32          7           0       -2.559586    0.226173   -2.113977
     33          6           0       -3.588172    1.006408   -1.920434
     34          1           0       -4.616288    0.755237   -2.183434
     35          1           0       -4.826146    3.011187   -0.315192
     36          1           0       -3.604150    4.061220   -0.570385
     37          1           0       -4.607787    3.665906   -1.794081
     38          1           0        6.549446    1.064844    0.318203
     39          1           0        6.803283    1.504890   -1.368978
     40          1           0        5.404216    2.131019   -0.496092
     41          1           0        5.624528   -3.136052   -1.836676
     42          6           0        5.140293   -2.175742   -1.659063
     43          8           0        2.967510   -2.964661   -2.191717
     44          6           0        3.725681   -2.060482   -1.841823
     45          1           0        2.218306   -0.682594   -1.709227
     46          7           0        3.214381   -0.803174   -1.590822
     47          8           0        3.370111    1.383260   -0.997145
     48          6           0        3.912461    0.310311   -1.195386
     49          1           0        6.926041   -1.142613   -1.120946
     50          6           0        5.848218   -1.107498   -1.273940
     51          6           0        6.059044    1.281211   -0.619214
     52          7           0        5.271447    0.119419   -1.040725
     53          1           0        4.206789    1.903758    4.178616
     54          1           0        3.024965    2.503731    3.227069
     55          1           0        4.577966    2.550642    2.727004
     56          1           0        1.247842   -3.529531    0.081103
     57          1           0        2.896653   -3.495225    0.517392
     58          7           0        2.009555   -3.032772    0.497251
     59          6           0        1.850476   -1.808053    1.003141
     60          6           0        2.569177    0.189430    2.077980
     61          7           0        1.366328    0.785989    2.037064
     62          1           0       -0.536004    0.400115    1.379157
     63          6           0        0.470871   -0.008388    1.453961
     64          7           0        0.628222   -1.235350    0.946625
     65          1           0        5.717555   -0.138463    2.735527
     66          6           0        4.685942   -0.276563    2.410505
     67          7           0        4.229883   -1.351078    1.814585
     68          6           0        2.888910   -1.068781    1.598170
     69          6           0        3.899255    2.019269    3.234113
     70          7           0        3.734991    0.695990    2.601687
 ---------------------------------------------------------------------

 SCF Done:  E(RwB97XD) =  -2048.75064726     A.U. after   15 cycles

 The electronic state is 1-A.
 Alpha  occ. eigenvalues --  -19.26041 -19.22151 -19.20700 -14.52517 -14.51459
 Alpha  occ. eigenvalues --  -14.49311 -14.48654 -14.47983 -14.46945 -14.46713
 Alpha  occ. eigenvalues --  -14.46263 -14.44459 -14.42939 -14.42815 -14.42415
 Alpha  occ. eigenvalues --  -14.42044 -14.41910 -14.41458 -14.40783 -14.40587
 Alpha  occ. eigenvalues --  -10.45620 -10.41235 -10.40231 -10.38413 -10.38267
 Alpha  occ. eigenvalues --  -10.37710 -10.37018 -10.35978 -10.35797 -10.35675
 Alpha  occ. eigenvalues --  -10.34571 -10.34568 -10.34325 -10.33866 -10.33549
 Alpha  occ. eigenvalues --  -10.33343 -10.33244 -10.31491 -10.31358 -10.30978
 Alpha  occ. eigenvalues --  -10.30535 -10.29002 -10.28094  -1.19584  -1.14112
 Alpha  occ. eigenvalues --   -1.13247  -1.13221  -1.11877  -1.10544  -1.09401
 Alpha  occ. eigenvalues --   -1.08597  -1.07780  -1.05419  -1.03314  -1.02646
 Alpha  occ. eigenvalues --   -1.00815  -0.99877  -0.99775  -0.98545  -0.97426
 Alpha  occ. eigenvalues --   -0.96478  -0.95390  -0.93050  -0.91013  -0.86538
 Alpha  occ. eigenvalues --   -0.84998  -0.84440  -0.84037  -0.83893  -0.82796
 Alpha  occ. eigenvalues --   -0.82317  -0.78910  -0.75786  -0.74583  -0.73685
 Alpha  occ. eigenvalues --   -0.73543  -0.73457  -0.73323  -0.71506  -0.69140
 Alpha  occ. eigenvalues --   -0.67389  -0.66721  -0.66625  -0.65483  -0.64517
 Alpha  occ. eigenvalues --   -0.63751  -0.63199  -0.62885  -0.62678  -0.61737
 Alpha  occ. eigenvalues --   -0.60582  -0.60276  -0.59547  -0.59317  -0.58530
 Alpha  occ. eigenvalues --   -0.58396  -0.58385  -0.56997  -0.56908  -0.56424
 Alpha  occ. eigenvalues --   -0.56078  -0.55716  -0.54567  -0.54456  -0.54350
 Alpha  occ. eigenvalues --   -0.53637  -0.53529  -0.52899  -0.52711  -0.52666
 Alpha  occ. eigenvalues --   -0.52392  -0.52182  -0.51701  -0.51278  -0.50631
 Alpha  occ. eigenvalues --   -0.50160  -0.49572  -0.49508  -0.49099  -0.48836
 Alpha  occ. eigenvalues --   -0.48633  -0.48299  -0.47818  -0.47586  -0.47430
 Alpha  occ. eigenvalues --   -0.47394  -0.45427  -0.45373  -0.43975  -0.43394
 Alpha  occ. eigenvalues --   -0.41651  -0.39632  -0.39564  -0.37638  -0.37284
 Alpha  occ. eigenvalues --   -0.37211  -0.36874  -0.36388  -0.35673  -0.34275
 Alpha  occ. eigenvalues --   -0.34007  -0.33942  -0.33445  -0.33380  -0.32950
 Alpha  occ. eigenvalues --   -0.32727  -0.32231  -0.31999  -0.31871  -0.31438
 Alpha  occ. eigenvalues --   -0.30805  -0.28372  -0.26262  -0.25372
 Alpha virt. eigenvalues --    0.03025   0.05087   0.07549   0.08242   0.08593
 Alpha virt. eigenvalues --    0.09042   0.09721   0.10507   0.10699   0.11795
 Alpha virt. eigenvalues --    0.13053   0.13654   0.14544   0.14683   0.15551

 Mulliken charges:
               1
     1  N   -0.310695
     2  C    0.180330
     3  C    0.046372
     4  N   -0.253957
     5  C    0.129453
     6  H    0.027558
     7  N   -0.284359
     8  C    0.131788
     9  H    0.014884
    10  N   -0.291913
    11  C    0.229088
    12  C    0.104726
    13  N   -0.042832
    14  H    0.109722
    15  H    0.089969
    16  H    0.027523
    17  H    0.034422
    18  H    0.024199
    19  N   -0.305534
    20  C    0.255942
    21  C    0.180387
    22  N   -0.117201
    23  H    0.112154
    24  H    0.117094
    25  N   -0.306753
    26  C    0.240773
    27  N   -0.136157
    28  H    0.116979
    29  C    0.164993
    30  O   -0.323670
    31  C   -0.002672
    32  N   -0.225647
    33  C    0.125929
    34  H    0.025889
    35  H    0.029922
    36  H    0.027396
    37  H    0.022002
    38  H    0.049340
    39  H    0.063495
    40  H    0.073862
    41  H    0.028041
    42  C   -0.094650
    43  O   -0.278799
    44  C    0.163357
    45  H    0.137093
    46  N   -0.126933
    47  O   -0.347802
    48  C    0.348674
    49  H    0.045822
    50  C    0.182440
    51  C    0.039766
    52  N   -0.284046
    53  H    0.032429
    54  H    0.039589
    55  H    0.019620
    56  H    0.123304
    57  H    0.117592
    58  N   -0.038601
    59  C    0.104190
    60  C    0.241968
    61  N   -0.275570
    62  H    0.035801
    63  C    0.164441
    64  N   -0.302643
    65  H    0.030019
    66  C    0.118589
    67  N   -0.251166
    68  C   -0.000199
    69  C    0.180355
    70  N   -0.307488
 Sum of Mulliken charges =  -0.00000

 Dipole moment (field-independent basis, Debye):
    X=              6.2499    Y=              6.0189    Z=              3.3190  Tot=              9.2900
 Quadrupole moment (field-independent basis, Debye-Ang):
   XX=           -142.2150   YY=           -225.0351   ZZ=           -255.3562
   XY=             10.0551   XZ=             14.7313   YZ=             -2.0034

 Normal termination of Gaussian 16 at Sat Jan 20 11:54:58 2018.
