 Gaussian 16, Revision A.03,
 Gaussian 16:  EM64L-G16RevA.03 25-Dec-2016

 ---------------------------------------
 #p wb97xd/cc-pvdz sp scf=(maxcycles=20)
 ---------------------------------------

 ------------------
 Base pair stacking
 ------------------
 Symbolic Z-matrix:
 Charge =  0 Multiplicity = 1

                         Standard orientation:
 ---------------------------------------------------------------------
 Center     Atomic      Atomic             Coordinates (Angstroms)
 Number     Number       Type             X           Y           Z
 ---------------------------------------------------------------------
      1          7           0       -6.358611   -1.249348    0.603329
      2          6           0       -7.688682   -0.629399    0.760086
      3          6           0       -4.192171   -1.626473    0.644175
      4          7           0       -4.770005   -2.745529    0.062307
      5          6           0       -6.052065   -2.473537    0.060993
      6          1           0       -6.826079   -3.136357   -0.326969
      7          7           0       -2.622198   -0.098100    1.517199
      8          6           0       -3.661564    0.698805    1.785973
      9          1           0       -3.409976    1.648623    2.255861
     10          7           0       -4.958966    0.499507    1.562488
     11          6           0       -5.158851   -0.695707    0.982900
     12          6           0       -2.856359   -1.293922    0.933897
     13          7           0       -1.820144   -2.090802    0.664816
     14          1           0       -1.946709   -2.984814    0.233599
     15          1           0       -0.882508   -1.821499    0.884975
     16          1           0       -8.263958   -1.212091    1.334275
     17          1           0       -7.590543    0.267688    1.189897
     18          1           0       -8.116595   -0.522129   -0.137344
     19          7           0       -3.604266    1.960942   -1.367736
     20          6           0       -2.241010    1.972542   -1.196106
     21          6           0       -4.520157    3.059965   -1.001660
     22          7           0        0.643806    3.591993   -0.139252
     23          1           0        1.624568    3.402384   -0.101876
     24          1           0        0.339541    4.478919    0.209311
     25          7           0       -1.514982    2.981751   -0.668457
     26          6           0       -0.225112    2.697701   -0.634375
     27          7           0        0.314505    1.516294   -1.082265
     28          1           0        1.312324    1.385568   -1.017186
     29          6           0       -0.413507    0.464097   -1.628843
     30          8           0        0.170929   -0.560220   -2.002935
     31          6           0       -1.800821    0.754544   -1.672047
     32          7           0       -2.866290   -0.006399   -2.133201
     33          6           0       -3.912893    0.747776   -1.933080
     34          1           0       -4.937173    0.466823   -2.180438
     35          1           0       -5.183605    2.733250   -0.329426
     36          1           0       -3.993612    3.813213   -0.609714
     37          1           0       -5.001857    3.380099   -1.816699
     38          1           0        6.247356    1.097649    0.172467
     39          1           0        6.467636    1.528968   -1.521668
     40          1           0        5.063559    2.125371   -0.636101
     41          1           0        5.408060   -3.145903   -1.933329
     42          6           0        4.900526   -2.197308   -1.757818
     43          8           0        2.743069   -3.048869   -2.255148
     44          6           0        3.481098   -2.121577   -1.923104
     45          1           0        1.939083   -0.783355   -1.782903
     46          7           0        2.939467   -0.876171   -1.676457
     47          8           0        3.044009    1.318954   -1.104002
     48          6           0        3.612409    0.259136   -1.299922
     49          1           0        6.664625   -1.111934   -1.252109
     50          6           0        5.584377   -1.107056   -1.391327
     51          6           0        5.739341    1.292296   -0.760324
     52          7           0        4.977898    0.106064   -1.161337
     53          1           0        4.540104    2.509251    3.658577
     54          1           0        3.343766    2.930279    2.632133
     55          1           0        4.889887    2.889936    2.110631
     56          1           0        1.546859   -3.565940    0.625731
     57          1           0        3.201131   -3.453167    1.026704
     58          7           0        2.312202   -3.002587    0.937220
     59          6           0        2.155448   -1.707939    1.220938
     60          6           0        2.881125    0.448855    1.916197
     61          7           0        1.675726    1.027397    1.786866
     62          1           0       -0.233700    0.529132    1.233325
     63          6           0        0.775512    0.141447    1.365440
     64          7           0        0.930543   -1.155659    1.080731
     65          1           0        6.039020    0.245966    2.578564
     66          6           0        5.003719    0.051408    2.297069
     67          7           0        4.543681   -1.112015    1.906555
     68          6           0        3.198982   -0.873958    1.661884
     69          6           0        4.219784    2.455713    2.712784
     70          7           0        4.051916    1.041335    2.326338
 ---------------------------------------------------------------------

 SCF Done:  E(RwB97XD) =  -2048.75368824     A.U. after   15 cycles

 The electronic state is 1-A.
 Alpha  occ. eigenvalues --  -19.25839 -19.21927 -19.20552 -14.52404 -14.51934
 Alpha  occ. eigenvalues --  -14.49340 -14.48496 -14.47784 -14.47101 -14.46731
 Alpha  occ. eigenvalues --  -14.46413 -14.44914 -14.43506 -14.43427 -14.42672
 Alpha  occ. eigenvalues --  -14.41889 -14.41862 -14.41586 -14.40714 -14.40657
 Alpha  occ. eigenvalues --  -10.45461 -10.41013 -10.40056 -10.39104 -10.38088
 Alpha  occ. eigenvalues --  -10.37635 -10.37455 -10.36538 -10.35923 -10.35567
 Alpha  occ. eigenvalues --  -10.35121 -10.34559 -10.34113 -10.33888 -10.33773
 Alpha  occ. eigenvalues --  -10.33629 -10.33149 -10.31892 -10.31575 -10.30871
 Alpha  occ. eigenvalues --  -10.30266 -10.29019 -10.27889  -1.19434  -1.14610
 Alpha  occ. eigenvalues --   -1.13077  -1.12967  -1.11890  -1.10388  -1.09270
 Alpha  occ. eigenvalues --   -1.08425  -1.08392  -1.05532  -1.03952  -1.02460
 Alpha  occ. eigenvalues --   -1.00956  -1.00384  -0.99530  -0.98380  -0.97477
 Alpha  occ. eigenvalues --   -0.96309  -0.96003  -0.93190  -0.90914  -0.87064
 Alpha  occ. eigenvalues --   -0.85494  -0.84485  -0.83865  -0.83767  -0.82852
 Alpha  occ. eigenvalues --   -0.82105  -0.78774  -0.76359  -0.74425  -0.74119
 Alpha  occ. eigenvalues --   -0.73485  -0.73402  -0.73290  -0.71583  -0.69730
 Alpha  occ. eigenvalues --   -0.67189  -0.66810  -0.66477  -0.66057  -0.64373
 Alpha  occ. eigenvalues --   -0.63605  -0.63571  -0.63181  -0.62536  -0.61546
 Alpha  occ. eigenvalues --   -0.60744  -0.60714  -0.59894  -0.59400  -0.58943
 Alpha  occ. eigenvalues --   -0.58487  -0.58149  -0.57124  -0.57034  -0.56289
 Alpha  occ. eigenvalues --   -0.55907  -0.55863  -0.54860  -0.54673  -0.54292
 Alpha  occ. eigenvalues --   -0.53728  -0.53443  -0.52889  -0.52796  -0.52686
 Alpha  occ. eigenvalues --   -0.52521  -0.52284  -0.52163  -0.51299  -0.50722
 Alpha  occ. eigenvalues --   -0.49952  -0.49672  -0.49391  -0.49029  -0.48952
 Alpha  occ. eigenvalues --   -0.48631  -0.48221  -0.47962  -0.47462  -0.47412
 Alpha  occ. eigenvalues --   -0.47285  -0.45429  -0.45372  -0.44077  -0.43711
 Alpha  occ. eigenvalues --   -0.41729  -0.40135  -0.39412  -0.37724  -0.37192
 Alpha  occ. eigenvalues --   -0.37126  -0.37107  -0.36855  -0.35783  -0.34298
 Alpha  occ. eigenvalues --   -0.34091  -0.33846  -0.33773  -0.33516  -0.33139
 Alpha  occ. eigenvalues --   -0.32562  -0.32119  -0.31845  -0.31745  -0.31472
 Alpha  occ. eigenvalues --   -0.30941  -0.29110  -0.26285  -0.25167
 Alpha virt. eigenvalues --    0.03126   0.04719   0.07435   0.07843   0.08355
 Alpha virt. eigenvalues --    0.09049   0.09903   0.10519   0.10872   0.11532
 Alpha virt. eigenvalues --    0.13168   0.13667   0.14525   0.14594   0.15070

 Mulliken charges:
               1
     1  N   -0.310671
     2  C    0.179660
     3  C    0.059068
     4  N   -0.254266
     5  C    0.130093
     6  H    0.027714
     7  N   -0.283115
     8  C    0.133434
     9  H    0.015237
    10  N   -0.290048
    11  C    0.227630
    12  C    0.101157
    13  N   -0.044384
    14  H    0.110267
    15  H    0.090242
    16  H    0.027886
    17  H    0.033860
    18  H    0.024196
    19  N   -0.298649
    20  C    0.252023
    21  C    0.181122
    22  N   -0.109956
    23  H    0.112499
    24  H    0.115298
    25  N   -0.304255
    26  C    0.228415
    27  N   -0.140936
    28  H    0.123564
    29  C    0.163884
    30  O   -0.323992
    31  C   -0.001822
    32  N   -0.222682
    33  C    0.124792
    34  H    0.021681
    35  H    0.023746
    36  H    0.026510
    37  H    0.020774
    38  H    0.044725
    39  H    0.062979
    40  H    0.074614
    41  H    0.027445
    42  C   -0.107262
    43  O   -0.272225
    44  C    0.168472
    45  H    0.134523
    46  N   -0.126003
    47  O   -0.342910
    48  C    0.343997
    49  H    0.045204
    50  C    0.183418
    51  C    0.039727
    52  N   -0.280111
    53  H    0.034044
    54  H    0.038184
    55  H    0.018480
    56  H    0.124332
    57  H    0.118406
    58  N   -0.051607
    59  C    0.110823
    60  C    0.241807
    61  N   -0.276425
    62  H    0.036418
    63  C    0.160717
    64  N   -0.303386
    65  H    0.035749
    66  C    0.110246
    67  N   -0.248102
    68  C    0.004473
    69  C    0.181596
    70  N   -0.302324
 Sum of Mulliken charges =  -0.00000

 Dipole moment (field-independent basis, Debye):
    X=              6.0745    Y=              6.0612    Z=              3.6676  Tot=              9.3321
 Quadrupole moment (field-independent basis, Debye-Ang):
   XX=           -144.1486   YY=           -225.2423   ZZ=           -257.7960
   XY=             11.0638   XZ=             10.2841   YZ=             -5.5642

 Normal termination of Gaussian 16 at Sat Jan 20 07:54:30 2018.
