 Gaussian 16, Revision A.03,
 Gaussian 16:  EM64L-G16RevA.03 25-Dec-2016

 ---------------------------------------
 #p wb97xd/cc-pvdz sp scf=(maxcycles=20)
 ---------------------------------------

 ------------------
 Base pair stacking
 ------------------
 Symbolic Z-matrix:
 Charge =  0 Multiplicity = 1

                         Standard orientation:
 ---------------------------------------------------------------------
 Center     Atomic      Atomic             Coordinates (Angstroms)
 Number     Number       Type             X           Y           Z
 ---------------------------------------------------------------------
      1          7           0        5.474861   -1.240041   -1.239157
      2          6           0        6.813100   -0.620421   -1.295594
      3          6           0        3.298643   -1.558297   -1.249688
      4          7           0        3.872295   -2.805501   -1.049358
      5          6           0        5.160416   -2.563849   -1.051034
      6          1           0        5.933490   -3.321237   -0.918107
      7          7           0        1.731602    0.178854   -1.549093
      8          6           0        2.779095    1.004312   -1.643798
      9          1           0        2.531900    2.052570   -1.805937
     10          7           0        4.079985    0.730558   -1.568646
     11          6           0        4.273934   -0.583500   -1.368474
     12          6           0        1.959945   -1.137340   -1.347692
     13          7           0        0.915606   -1.962908   -1.252886
     14          1           0        1.037642   -2.944806   -1.103922
     15          1           0       -0.023849   -1.628250   -1.327492
     16          1           0        7.336398   -1.021947   -2.047336
     17          1           0        6.719612    0.363618   -1.444119
     18          1           0        7.293915   -0.781519   -0.433700
     19          7           0        4.564852    1.494666    1.177421
     20          6           0        3.194792    1.570593    1.105192
     21          6           0        5.501179    2.566709    0.784054
     22          7           0        0.318417    3.349588    0.315606
     23          1           0       -0.670073    3.203356    0.342665
     24          1           0        0.636952    4.235206   -0.023406
     25          7           0        2.479506    2.628792    0.666275
     26          6           0        1.178963    2.401279    0.715715
     27          7           0        0.619662    1.227932    1.160632
     28          1           0       -0.385134    1.142259    1.163345
     29          6           0        1.336310    0.126036    1.616810
     30          8           0        0.734206   -0.885814    1.996778
     31          6           0        2.734885    0.355451    1.569637
     32          7           0        3.794900   -0.466804    1.926270
     33          6           0        4.857667    0.249169    1.677064
     34          1           0        5.883167   -0.084112    1.840024
     35          1           0        6.100079    2.237487    0.054854
     36          1           0        4.982734    3.355800    0.457222
     37          1           0        6.053198    2.835363    1.572676
     38          1           0       -5.399835    1.109024    0.324032
     39          1           0       -5.480213    1.485598    2.043442
     40          1           0       -4.116765    2.054526    1.079759
     41          1           0       -4.605930   -3.242199    2.216954
     42          6           0       -4.069837   -2.310123    2.037884
     43          8           0       -1.923202   -3.270593    2.348606
     44          6           0       -2.640318   -2.301020    2.102719
     45          1           0       -1.053328   -1.025213    1.897499
     46          7           0       -2.061897   -1.071381    1.860460
     47          8           0       -2.107600    1.146080    1.372665
     48          6           0       -2.707911    0.104784    1.572652
     49          1           0       -5.814557   -1.132607    1.698415
     50          6           0       -4.728044   -1.178849    1.759337
     51          6           0       -4.818933    1.246861    1.223827
     52          7           0       -4.085296    0.015164    1.527887
     53          1           0       -5.452940    3.394186   -2.401304
     54          1           0       -4.188076    3.485504   -1.374728
     55          1           0       -5.702979    3.319404   -0.790312
     56          1           0       -2.489152   -3.338469   -1.425172
     57          1           0       -4.158888   -3.091481   -1.672327
     58          7           0       -3.252445   -2.698429   -1.513948
     59          6           0       -3.070717   -1.379232   -1.425216
     60          6           0       -3.765231    0.896587   -1.428189
     61          7           0       -2.536669    1.396211   -1.215041
     62          1           0       -0.616011    0.732524   -0.948188
     63          6           0       -1.642878    0.413686   -1.121800
     64          7           0       -1.822908   -0.908176   -1.210401
     65          1           0       -6.960177    0.937959   -1.920903
     66          6           0       -5.917433    0.655875   -1.772433
     67          7           0       -5.473474   -0.577191   -1.760344
     68          6           0       -4.110270   -0.438811   -1.542947
     69          6           0       -5.081900    3.066749   -1.532338
     70          7           0       -4.937734    1.598690   -1.577455
 ---------------------------------------------------------------------

 SCF Done:  E(RwB97XD) =  -2048.72907305     A.U. after   15 cycles

 The electronic state is 1-A.
 Alpha  occ. eigenvalues --  -19.25157 -19.21470 -19.20513 -14.52598 -14.51858
 Alpha  occ. eigenvalues --  -14.49041 -14.48448 -14.48252 -14.47292 -14.46660
 Alpha  occ. eigenvalues --  -14.46539 -14.45923 -14.44609 -14.44457 -14.42847
 Alpha  occ. eigenvalues --  -14.41855 -14.41563 -14.41231 -14.40815 -14.40575
 Alpha  occ. eigenvalues --  -10.44773 -10.41085 -10.40144 -10.39589 -10.38270
 Alpha  occ. eigenvalues --  -10.38111 -10.37402 -10.37201 -10.36062 -10.35855
 Alpha  occ. eigenvalues --  -10.34423 -10.34291 -10.34278 -10.34127 -10.33655
 Alpha  occ. eigenvalues --  -10.33289 -10.33236 -10.32936 -10.31642 -10.30598
 Alpha  occ. eigenvalues --  -10.30521 -10.28769 -10.27982  -1.19009  -1.15709
 Alpha  occ. eigenvalues --   -1.13077  -1.12509  -1.11599  -1.10394  -1.09544
 Alpha  occ. eigenvalues --   -1.08800  -1.08433  -1.05449  -1.05006  -1.01962
 Alpha  occ. eigenvalues --   -1.01381  -1.00902  -0.99590  -0.98423  -0.97344
 Alpha  occ. eigenvalues --   -0.97047  -0.96393  -0.93136  -0.90526  -0.88004
 Alpha  occ. eigenvalues --   -0.86352  -0.84315  -0.83948  -0.83248  -0.82768
 Alpha  occ. eigenvalues --   -0.82227  -0.78349  -0.77354  -0.75197  -0.74465
 Alpha  occ. eigenvalues --   -0.73490  -0.73277  -0.72879  -0.71412  -0.70704
 Alpha  occ. eigenvalues --   -0.67257  -0.67072  -0.66725  -0.66092  -0.64568
 Alpha  occ. eigenvalues --   -0.64232  -0.63665  -0.63146  -0.62551  -0.62011
 Alpha  occ. eigenvalues --   -0.61639  -0.60898  -0.60711  -0.59807  -0.59100
 Alpha  occ. eigenvalues --   -0.58359  -0.58210  -0.57609  -0.56998  -0.56168
 Alpha  occ. eigenvalues --   -0.55977  -0.55738  -0.55490  -0.54123  -0.53993
 Alpha  occ. eigenvalues --   -0.53926  -0.53763  -0.53447  -0.53264  -0.53091
 Alpha  occ. eigenvalues --   -0.52755  -0.52231  -0.52091  -0.51038  -0.50496
 Alpha  occ. eigenvalues --   -0.50237  -0.49863  -0.49293  -0.49091  -0.48796
 Alpha  occ. eigenvalues --   -0.48517  -0.48163  -0.48072  -0.47529  -0.47101
 Alpha  occ. eigenvalues --   -0.47023  -0.45882  -0.45155  -0.44801  -0.42876
 Alpha  occ. eigenvalues --   -0.41184  -0.41102  -0.39030  -0.37960  -0.37871
 Alpha  occ. eigenvalues --   -0.37664  -0.37171  -0.36936  -0.36072  -0.35003
 Alpha  occ. eigenvalues --   -0.34567  -0.34167  -0.33886  -0.33427  -0.32823
 Alpha  occ. eigenvalues --   -0.32450  -0.32092  -0.31720  -0.31580  -0.31095
 Alpha  occ. eigenvalues --   -0.30786  -0.29456  -0.25960  -0.25400
 Alpha virt. eigenvalues --    0.03405   0.03701   0.06886   0.07583   0.08839
 Alpha virt. eigenvalues --    0.09112   0.09712   0.10069   0.10828   0.12550
 Alpha virt. eigenvalues --    0.13071   0.13791   0.14037   0.14172   0.14539

 Mulliken charges:
               1
     1  N   -0.305914
     2  C    0.173145
     3  C    0.079670
     4  N   -0.257225
     5  C    0.137227
     6  H    0.026683
     7  N   -0.284992
     8  C    0.134927
     9  H    0.015313
    10  N   -0.283048
    11  C    0.224167
    12  C    0.079937
    13  N   -0.049412
    14  H    0.109652
    15  H    0.083663
    16  H    0.029165
    17  H    0.035105
    18  H    0.021802
    19  N   -0.275679
    20  C    0.221016
    21  C    0.188395
    22  N   -0.111075
    23  H    0.117231
    24  H    0.116303
    25  N   -0.293825
    26  C    0.223557
    27  N   -0.127393
    28  H    0.113720
    29  C    0.174675
    30  O   -0.321604
    31  C   -0.001692
    32  N   -0.215881
    33  C    0.107174
    34  H    0.015635
    35  H    0.013097
    36  H    0.029431
    37  H    0.021198
    38  H    0.046695
    39  H    0.054293
    40  H    0.070890
    41  H    0.025286
    42  C   -0.105085
    43  O   -0.268223
    44  C    0.170511
    45  H    0.129732
    46  N   -0.114468
    47  O   -0.332864
    48  C    0.328661
    49  H    0.045320
    50  C    0.166990
    51  C    0.059566
    52  N   -0.275854
    53  H    0.038095
    54  H    0.041192
    55  H    0.024130
    56  H    0.123925
    57  H    0.118975
    58  N   -0.060660
    59  C    0.095498
    60  C    0.168725
    61  N   -0.246201
    62  H    0.023014
    63  C    0.156584
    64  N   -0.296385
    65  H    0.035832
    66  C    0.109335
    67  N   -0.245446
    68  C    0.059961
    69  C    0.179564
    70  N   -0.291735
 Sum of Mulliken charges =  -0.00000

 Dipole moment (field-independent basis, Debye):
    X=             -6.1358    Y=              6.8225    Z=             -3.6992  Tot=              9.8934
 Quadrupole moment (field-independent basis, Debye-Ang):
   XX=           -149.1250   YY=           -227.5775   ZZ=           -259.4358
   XY=             -7.4930   XZ=             -2.1105   YZ=             12.9202

 Normal termination of Gaussian 16 at Sat Jan 20 14:30:35 2018.
