 Gaussian 16, Revision A.03,
 Gaussian 16:  EM64L-G16RevA.03 25-Dec-2016

 ---------------------------------------
 #p wb97xd/cc-pvdz sp scf=(maxcycles=20)
 ---------------------------------------

 ------------------
 Base pair stacking
 ------------------
 Symbolic Z-matrix:
 Charge =  0 Multiplicity = 1

                         Standard orientation:
 ---------------------------------------------------------------------
 Center     Atomic      Atomic             Coordinates (Angstroms)
 Number     Number       Type             X           Y           Z
 ---------------------------------------------------------------------
      1          7           0        4.247735   -1.489729   -1.930586
      2          6           0        5.565193   -0.969596   -2.345054
      3          6           0        2.096844   -1.689111   -1.516805
      4          7           0        2.680199   -2.884809   -1.123429
      5          6           0        3.952681   -2.716832   -1.388461
      6          1           0        4.727464   -3.462269   -1.206887
      7          7           0        0.523834    0.011242   -1.961059
      8          6           0        1.550861    0.737637   -2.413993
      9          1           0        1.293198    1.731915   -2.776319
     10          7           0        2.842331    0.421717   -2.486201
     11          6           0        3.050545   -0.819386   -2.016354
     12          6           0        0.766130   -1.233427   -1.495058
     13          7           0       -0.257767   -1.960072   -1.042515
     14          1           0       -0.124848   -2.886411   -0.688347
     15          1           0       -1.192102   -1.603477   -1.042069
     16          1           0        5.949637   -1.559594   -3.055185
     17          1           0        5.460510   -0.042554   -2.703882
     18          1           0        6.181901   -0.952905   -1.558050
     19          7           0        5.731211    1.384754    0.661080
     20          6           0        4.369388    1.515124    0.789464
     21          6           0        6.656727    2.459617    0.250225
     22          7           0        1.502839    3.466089    0.593421
     23          1           0        0.521215    3.351983    0.743846
     24          1           0        1.815297    4.371217    0.303905
     25          7           0        3.653710    2.638010    0.563689
     26          6           0        2.362367    2.451521    0.771682
     27          7           0        1.811976    1.257504    1.170324
     28          1           0        0.813860    1.206722    1.305130
     29          6           0        2.529210    0.089299    1.408526
     30          8           0        1.935533   -0.935839    1.765429
     31          6           0        3.917966    0.274069    1.189222
     32          7           0        4.975114   -0.617498    1.309379
     33          6           0        6.027927    0.083843    0.987027
     34          1           0        7.048539   -0.300028    0.970403
     35          1           0        7.134308    2.189327   -0.585045
     36          1           0        6.137897    3.296386    0.080224
     37          1           0        7.323132    2.623705    0.976720
     38          1           0       -4.263923    1.435827    1.177444
     39          1           0       -4.091711    1.630019    2.920218
     40          1           0       -2.845510    2.250827    1.837190
     41          1           0       -3.433985   -3.116746    2.493423
     42          6           0       -2.882268   -2.189955    2.335635
     43          8           0       -0.762832   -3.251466    2.244472
     44          6           0       -1.458448   -2.237090    2.200184
     45          1           0        0.146410   -1.002184    1.903996
     46          7           0       -0.858888   -1.009352    2.004140
     47          8           0       -0.861995    1.247661    1.752959
     48          6           0       -1.479750    0.212321    1.929368
     49          1           0       -4.597287   -0.923576    2.363999
     50          6           0       -3.516133   -1.013468    2.267171
     51          6           0       -3.560245    1.457102    1.996254
     52          7           0       -2.853180    0.175513    2.069181
     53          1           0       -6.660583    3.311135   -2.381969
     54          1           0       -5.240162    3.570505   -1.622205
     55          1           0       -6.637324    3.621581   -0.779933
     56          1           0       -3.660174   -3.160769   -0.338084
     57          1           0       -5.344442   -2.891342   -0.365302
     58          7           0       -4.419386   -2.519735   -0.451293
     59          6           0       -4.208692   -1.226641   -0.705644
     60          6           0       -4.865041    1.020315   -1.132371
     61          7           0       -3.611920    1.491445   -1.242586
     62          1           0       -1.682264    0.808618   -1.138718
     63          6           0       -2.727644    0.511853   -1.065474
     64          7           0       -2.936683   -0.783887   -0.810635
     65          1           0       -8.096569    1.112212   -1.102013
     66          6           0       -7.047350    0.818356   -1.060576
     67          7           0       -6.623277   -0.400158   -0.830186
     68          6           0       -5.241294   -0.286080   -0.872960
     69          6           0       -6.152992    3.173453   -1.531448
     70          7           0       -6.036996    1.728893   -1.252544
 ---------------------------------------------------------------------

 SCF Done:  E(RwB97XD) =  -2048.74968147     A.U. after   15 cycles

 The electronic state is 1-A.
 Alpha  occ. eigenvalues --  -19.25253 -19.21505 -19.20739 -14.52728 -14.51685
 Alpha  occ. eigenvalues --  -14.49464 -14.48509 -14.48293 -14.47223 -14.46985
 Alpha  occ. eigenvalues --  -14.46810 -14.45592 -14.44843 -14.44819 -14.42758
 Alpha  occ. eigenvalues --  -14.42196 -14.41735 -14.41131 -14.40783 -14.40669
 Alpha  occ. eigenvalues --  -10.44816 -10.41434 -10.40386 -10.39591 -10.38459
 Alpha  occ. eigenvalues --  -10.38188 -10.37588 -10.37141 -10.36283 -10.35709
 Alpha  occ. eigenvalues --  -10.34849 -10.34209 -10.34094 -10.34027 -10.33600
 Alpha  occ. eigenvalues --  -10.33285 -10.33255 -10.33148 -10.31546 -10.30550
 Alpha  occ. eigenvalues --  -10.30464 -10.28607 -10.28466  -1.18789  -1.15503
 Alpha  occ. eigenvalues --   -1.13459  -1.12510  -1.11110  -1.10961  -1.09808
 Alpha  occ. eigenvalues --   -1.08772  -1.08553  -1.05302  -1.05242  -1.01848
 Alpha  occ. eigenvalues --   -1.01201  -1.00681  -0.99912  -0.98872  -0.97366
 Alpha  occ. eigenvalues --   -0.97147  -0.96592  -0.92976  -0.90401  -0.87988
 Alpha  occ. eigenvalues --   -0.86120  -0.84660  -0.83720  -0.83093  -0.82808
 Alpha  occ. eigenvalues --   -0.82083  -0.78274  -0.77361  -0.75244  -0.75045
 Alpha  occ. eigenvalues --   -0.73859  -0.72887  -0.72727  -0.71101  -0.70742
 Alpha  occ. eigenvalues --   -0.67676  -0.67152  -0.66293  -0.65964  -0.64665
 Alpha  occ. eigenvalues --   -0.64533  -0.63488  -0.62836  -0.62757  -0.62065
 Alpha  occ. eigenvalues --   -0.60851  -0.60670  -0.60390  -0.59717  -0.59020
 Alpha  occ. eigenvalues --   -0.58924  -0.58536  -0.57510  -0.56557  -0.55805
 Alpha  occ. eigenvalues --   -0.55775  -0.55712  -0.55443  -0.54691  -0.54301
 Alpha  occ. eigenvalues --   -0.53889  -0.53834  -0.53430  -0.53229  -0.53075
 Alpha  occ. eigenvalues --   -0.52483  -0.51705  -0.51535  -0.50652  -0.50463
 Alpha  occ. eigenvalues --   -0.50377  -0.50044  -0.49667  -0.49338  -0.48930
 Alpha  occ. eigenvalues --   -0.48867  -0.48286  -0.48249  -0.47667  -0.47229
 Alpha  occ. eigenvalues --   -0.46883  -0.45791  -0.45621  -0.45087  -0.42707
 Alpha  occ. eigenvalues --   -0.41324  -0.41016  -0.39029  -0.38194  -0.37914
 Alpha  occ. eigenvalues --   -0.37717  -0.37492  -0.37014  -0.35445  -0.35114
 Alpha  occ. eigenvalues --   -0.34781  -0.34191  -0.33536  -0.33420  -0.33210
 Alpha  occ. eigenvalues --   -0.32879  -0.32607  -0.32087  -0.31240  -0.30782
 Alpha  occ. eigenvalues --   -0.30576  -0.30450  -0.26148  -0.25666
 Alpha virt. eigenvalues --    0.02591   0.04632   0.06383   0.07903   0.08563
 Alpha virt. eigenvalues --    0.09031   0.09557   0.10233   0.10870   0.12163
 Alpha virt. eigenvalues --    0.13273   0.13629   0.14082   0.14612   0.14883

 Mulliken charges:
               1
     1  N   -0.301967
     2  C    0.185250
     3  C    0.052973
     4  N   -0.250855
     5  C    0.153736
     6  H    0.028261
     7  N   -0.294506
     8  C    0.125861
     9  H    0.008503
    10  N   -0.279562
    11  C    0.235948
    12  C    0.080749
    13  N   -0.063692
    14  H    0.118029
    15  H    0.086364
    16  H    0.023586
    17  H    0.030061
    18  H    0.016696
    19  N   -0.309054
    20  C    0.259935
    21  C    0.182833
    22  N   -0.121706
    23  H    0.119865
    24  H    0.119136
    25  N   -0.308554
    26  C    0.245448
    27  N   -0.139925
    28  H    0.119937
    29  C    0.191183
    30  O   -0.317805
    31  C   -0.017311
    32  N   -0.222719
    33  C    0.104174
    34  H    0.026903
    35  H    0.022373
    36  H    0.032986
    37  H    0.026430
    38  H    0.058578
    39  H    0.054398
    40  H    0.075486
    41  H    0.018196
    42  C   -0.111757
    43  O   -0.270975
    44  C    0.169213
    45  H    0.132556
    46  N   -0.123581
    47  O   -0.350741
    48  C    0.343578
    49  H    0.045122
    50  C    0.170348
    51  C    0.046744
    52  N   -0.275909
    53  H    0.035028
    54  H    0.041775
    55  H    0.030087
    56  H    0.124072
    57  H    0.118020
    58  N   -0.052560
    59  C    0.079866
    60  C    0.212988
    61  N   -0.257697
    62  H    0.033837
    63  C    0.162317
    64  N   -0.305353
    65  H    0.040090
    66  C    0.140762
    67  N   -0.258404
    68  C    0.033360
    69  C    0.179393
    70  N   -0.308405
 Sum of Mulliken charges =  -0.00000

 Dipole moment (field-independent basis, Debye):
    X=             -6.4248    Y=              7.7416    Z=             -1.4585  Tot=             10.1655
 Quadrupole moment (field-independent basis, Debye-Ang):
   XX=           -151.6438   YY=           -226.9395   ZZ=           -253.9837
   XY=             -0.8370   XZ=            -14.8877   YZ=             10.4724

 Normal termination of Gaussian 16 at Sun Jan 21 02:52:50 2018.
