 Gaussian 16, Revision A.03,
 Gaussian 16:  EM64L-G16RevA.03 25-Dec-2016

 ---------------------------------------
 #p wb97xd/cc-pvdz sp scf=(maxcycles=20)
 ---------------------------------------

 ------------------
 Base pair stacking
 ------------------
 Symbolic Z-matrix:
 Charge =  0 Multiplicity = 1

                         Standard orientation:
 ---------------------------------------------------------------------
 Center     Atomic      Atomic             Coordinates (Angstroms)
 Number     Number       Type             X           Y           Z
 ---------------------------------------------------------------------
      1          7           0        6.066493   -1.288075   -0.811777
      2          6           0        7.399195   -0.667572   -0.941795
      3          6           0        3.896164   -1.643171   -0.841210
      4          7           0        4.474318   -2.812310   -0.368365
      5          6           0        5.758726   -2.551577   -0.369564
      6          1           0        6.533668   -3.251189   -0.054978
      7          7           0        2.324400   -0.033524   -1.549426
      8          6           0        3.365999    0.775136   -1.770145
      9          1           0        3.114539    1.763525   -2.152380
     10          7           0        4.665491    0.547236   -1.590438
     11          6           0        4.865021   -0.694595   -1.118775
     12          6           0        2.558269   -1.276556   -1.074794
     13          7           0        1.519821   -2.085239   -0.853835
     14          1           0        1.646082   -3.013737   -0.502870
     15          1           0        0.580749   -1.790728   -1.031467
     16          1           0        7.957692   -1.203723   -1.574884
     17          1           0        7.301413    0.263645   -1.291655
     18          1           0        7.845325   -0.640609   -0.047235
     19          7           0        3.933221    1.814290    1.316568
     20          6           0        2.566998    1.850987    1.174666
     21          6           0        4.860882    2.896771    0.931388
     22          7           0       -0.310014    3.524044    0.181999
     23          1           0       -1.294666    3.352440    0.165852
     24          1           0        0.002767    4.405637   -0.172502
     25          7           0        1.848243    2.873870    0.663649
     26          6           0        0.552953    2.613486    0.657468
     27          7           0        0.001691    1.441658    1.116188
     28          1           0       -0.999534    1.329271    1.072773
     29          6           0        0.722037    0.375734    1.646073
     30          8           0        0.127238   -0.638135    2.032094
     31          6           0        2.115051    0.640722    1.659253
     32          7           0        3.176190   -0.140059    2.096574
     33          6           0        4.231826    0.595068    1.874235
     34          1           0        5.255937    0.295169    2.099031
     35          1           0        5.503459    2.558719    0.244645
     36          1           0        4.339818    3.659951    0.551509
     37          1           0        5.365996    3.207167    1.735960
     38          1           0       -5.963726    1.132892   -0.009346
     39          1           0       -6.139169    1.566330    1.689476
     40          1           0       -4.744003    2.137924    0.773962
     41          1           0       -5.156613   -3.127570    2.074779
     42          6           0       -4.635736   -2.188221    1.888909
     43          8           0       -2.483915   -3.079609    2.338558
     44          6           0       -3.211905   -2.138631    2.023296
     45          1           0       -1.649070   -0.828667    1.850473
     46          7           0       -2.653073   -0.903066    1.765767
     47          8           0       -2.729857    1.294218    1.197227
     48          6           0       -3.313148    0.244759    1.404749
     49          1           0       -6.390263   -1.070237    1.422476
     50          6           0       -5.307330   -1.085256    1.538136
     51          6           0       -5.432066    1.317214    0.912304
     52          7           0       -4.683911    0.116822    1.295826
     53          1           0       -4.852468    2.803573   -3.317413
     54          1           0       -3.632588    3.126065   -2.282999
     55          1           0       -5.168692    3.053637   -1.735992
     56          1           0       -1.859802   -3.531620   -0.873052
     57          1           0       -3.520329   -3.371963   -1.229788
     58          7           0       -2.625567   -2.937709   -1.120106
     59          6           0       -2.461885   -1.624866   -1.295697
     60          6           0       -3.180089    0.589026   -1.790228
     61          7           0       -1.966920    1.144872   -1.636283
     62          1           0       -0.052056    0.586112   -1.165470
     63          6           0       -1.067295    0.219110   -1.309877
     64          7           0       -1.229253   -1.096278   -1.133533
     65          1           0       -6.351949    0.468386   -2.404142
     66          6           0       -5.313340    0.242338   -2.160996
     67          7           0       -4.857049   -0.953752   -1.880193
     68          6           0       -3.505665   -0.748084   -1.643097
     69          6           0       -4.514510    2.667055   -2.386206
     70          7           0       -4.352820    1.223581   -2.124955
 ---------------------------------------------------------------------

 SCF Done:  E(RwB97XD) =  -2048.75229601     A.U. after   15 cycles

 The electronic state is 1-A.
 Alpha  occ. eigenvalues --  -19.25627 -19.21771 -19.20492 -14.52284 -14.52238
 Alpha  occ. eigenvalues --  -14.49283 -14.48400 -14.47598 -14.47582 -14.46695
 Alpha  occ. eigenvalues --  -14.46324 -14.45316 -14.43932 -14.43849 -14.42755
 Alpha  occ. eigenvalues --  -14.41796 -14.41796 -14.41523 -14.40687 -14.40625
 Alpha  occ. eigenvalues --  -10.45248 -10.40981 -10.39907 -10.39532 -10.38047
 Alpha  occ. eigenvalues --  -10.37837 -10.37509 -10.36941 -10.35907 -10.35391
 Alpha  occ. eigenvalues --  -10.35309 -10.34480 -10.34054 -10.34016 -10.33821
 Alpha  occ. eigenvalues --  -10.33545 -10.33096 -10.32343 -10.31609 -10.30749
 Alpha  occ. eigenvalues --  -10.30201 -10.28938 -10.27807  -1.19269  -1.15023
 Alpha  occ. eigenvalues --   -1.13017  -1.12804  -1.11815  -1.10320  -1.09136
 Alpha  occ. eigenvalues --   -1.08826  -1.08342  -1.05513  -1.04368  -1.02290
 Alpha  occ. eigenvalues --   -1.00956  -1.00780  -0.99455  -0.98331  -0.97438
 Alpha  occ. eigenvalues --   -0.96409  -0.96251  -0.93184  -0.90782  -0.87459
 Alpha  occ. eigenvalues --   -0.85849  -0.84442  -0.83779  -0.83627  -0.82830
 Alpha  occ. eigenvalues --   -0.82040  -0.78619  -0.76774  -0.74589  -0.74313
 Alpha  occ. eigenvalues --   -0.73426  -0.73355  -0.73144  -0.71536  -0.70137
 Alpha  occ. eigenvalues --   -0.67121  -0.66794  -0.66468  -0.66312  -0.64258
 Alpha  occ. eigenvalues --   -0.63973  -0.63498  -0.63198  -0.62479  -0.61497
 Alpha  occ. eigenvalues --   -0.61172  -0.60756  -0.60275  -0.59321  -0.59232
 Alpha  occ. eigenvalues --   -0.58389  -0.58075  -0.57206  -0.57038  -0.56233
 Alpha  occ. eigenvalues --   -0.55903  -0.55756  -0.55193  -0.54592  -0.54141
 Alpha  occ. eigenvalues --   -0.53876  -0.53346  -0.53202  -0.52978  -0.52634
 Alpha  occ. eigenvalues --   -0.52500  -0.52398  -0.52298  -0.51243  -0.50698
 Alpha  occ. eigenvalues --   -0.49865  -0.49778  -0.49259  -0.49185  -0.48802
 Alpha  occ. eigenvalues --   -0.48521  -0.48311  -0.48076  -0.47420  -0.47232
 Alpha  occ. eigenvalues --   -0.47176  -0.45558  -0.45284  -0.44469  -0.43468
 Alpha  occ. eigenvalues --   -0.41624  -0.40497  -0.39272  -0.37680  -0.37493
 Alpha  occ. eigenvalues --   -0.37310  -0.37122  -0.37034  -0.35907  -0.34482
 Alpha  occ. eigenvalues --   -0.34112  -0.33981  -0.33836  -0.33540  -0.32992
 Alpha  occ. eigenvalues --   -0.32479  -0.32172  -0.31779  -0.31679  -0.31311
 Alpha  occ. eigenvalues --   -0.30948  -0.29467  -0.26148  -0.25120
 Alpha virt. eigenvalues --    0.03304   0.04306   0.07335   0.07394   0.08321
 Alpha virt. eigenvalues --    0.08915   0.09981   0.10673   0.10901   0.11836
 Alpha virt. eigenvalues --    0.13205   0.13761   0.14189   0.14401   0.14883

 Mulliken charges:
               1
     1  N   -0.309990
     2  C    0.177953
     3  C    0.068437
     4  N   -0.254355
     5  C    0.130963
     6  H    0.027524
     7  N   -0.284713
     8  C    0.136084
     9  H    0.014122
    10  N   -0.286867
    11  C    0.225445
    12  C    0.097550
    13  N   -0.046884
    14  H    0.110577
    15  H    0.088443
    16  H    0.028256
    17  H    0.034530
    18  H    0.023729
    19  N   -0.291593
    20  C    0.240538
    21  C    0.182793
    22  N   -0.109446
    23  H    0.113627
    24  H    0.115211
    25  N   -0.301233
    26  C    0.222338
    27  N   -0.143716
    28  H    0.127515
    29  C    0.171552
    30  O   -0.324255
    31  C   -0.005915
    32  N   -0.220336
    33  C    0.125034
    34  H    0.017863
    35  H    0.020942
    36  H    0.026636
    37  H    0.020070
    38  H    0.043096
    39  H    0.061448
    40  H    0.073993
    41  H    0.026218
    42  C   -0.111482
    43  O   -0.269566
    44  C    0.168050
    45  H    0.133183
    46  N   -0.121984
    47  O   -0.338589
    48  C    0.337913
    49  H    0.044557
    50  C    0.180085
    51  C    0.042863
    52  N   -0.278244
    53  H    0.035530
    54  H    0.038284
    55  H    0.018689
    56  H    0.124986
    57  H    0.118713
    58  N   -0.055755
    59  C    0.107499
    60  C    0.232066
    61  N   -0.268873
    62  H    0.042736
    63  C    0.145968
    64  N   -0.301442
    65  H    0.037980
    66  C    0.105160
    67  N   -0.247945
    68  C    0.022454
    69  C    0.182345
    70  N   -0.298366
 Sum of Mulliken charges =  -0.00000

 Dipole moment (field-independent basis, Debye):
    X=             -6.0741    Y=              6.2124    Z=             -3.8524  Tot=              9.5042
 Quadrupole moment (field-independent basis, Debye-Ang):
   XX=           -145.7804   YY=           -225.5381   ZZ=           -258.9855
   XY=            -10.6109   XZ=              6.3733   YZ=              7.6121

 Normal termination of Gaussian 16 at Sat Jan 20 23:06:08 2018.
