 Gaussian 16, Revision A.03,
 Gaussian 16:  EM64L-G16RevA.03 25-Dec-2016

 ---------------------------------------
 #p wb97xd/cc-pvdz sp scf=(maxcycles=20)
 ---------------------------------------

 ------------------
 Base pair stacking
 ------------------
 Symbolic Z-matrix:
 Charge =  0 Multiplicity = 1

                         Standard orientation:
 ---------------------------------------------------------------------
 Center     Atomic      Atomic             Coordinates (Angstroms)
 Number     Number       Type             X           Y           Z
 ---------------------------------------------------------------------
      1          7           0       -6.827581   -1.000770    0.336965
      2          6           0       -8.127263   -0.317626    0.188181
      3          6           0       -4.690959   -1.418726    0.649157
      4          7           0       -5.298796   -2.646637    0.431209
      5          6           0       -6.561701   -2.345690    0.251853
      6          1           0       -7.349892   -3.072227    0.052240
      7          7           0       -3.086500    0.256944    1.074365
      8          6           0       -4.092397    1.133911    0.992596
      9          1           0       -3.813339    2.176540    1.138578
     10          7           0       -5.385174    0.917322    0.758685
     11          6           0       -5.620599   -0.394887    0.594058
     12          6           0       -3.355932   -1.055874    0.904060
     13          7           0       -2.353155   -1.932809    0.985307
     14          1           0       -2.506499   -2.914362    0.865921
     15          1           0       -1.414965   -1.638714    1.168189
     16          1           0       -8.764077   -0.655128    0.881540
     17          1           0       -8.002026    0.667355    0.303274
     18          1           0       -8.500082   -0.500467   -0.721522
     19          7           0       -3.093966    1.697846   -1.488769
     20          6           0       -1.742446    1.709955   -1.241180
     21          6           0       -4.029085    2.797035   -1.175677
     22          7           0        1.078461    3.331213   -0.026396
     23          1           0        2.055635    3.141877    0.065982
     24          1           0        0.755031    4.218442    0.303655
     25          7           0       -1.047239    2.719896   -0.674845
     26          6           0        0.238756    2.436193   -0.568370
     27          7           0        0.802785    1.254434   -0.984096
     28          1           0        1.795419    1.124013   -0.863181
     29          6           0        0.106671    0.201479   -1.569404
     30          8           0        0.711298   -0.823102   -1.909116
     31          6           0       -1.276115    0.491555   -1.690444
     32          7           0       -2.313980   -0.270134   -2.209632
     33          6           0       -3.370280    0.484002   -2.069179
     34          1           0       -4.379067    0.202540   -2.373136
     35          1           0       -4.729030    2.470883   -0.541243
     36          1           0       -3.525423    3.550843   -0.755707
     37          1           0       -4.464514    3.116195   -2.016725
     38          1           0        6.656247    0.838532    0.600929
     39          1           0        6.970861    1.268090   -1.078698
     40          1           0        5.519338    1.865108   -0.273690
     41          1           0        5.936788   -3.407468   -1.543929
     42          6           0        5.420071   -2.458807   -1.398098
     43          8           0        3.293952   -3.311403   -2.014388
     44          6           0        4.012090   -2.383592   -1.642588
     45          1           0        2.464412   -1.045576   -1.590306
     46          7           0        3.457293   -1.138042   -1.427971
     47          8           0        3.529269    1.057713   -0.852939
     48          6           0        4.107926   -0.002176   -1.015615
     49          1           0        7.152930   -1.372476   -0.795688
     50          6           0        6.082150   -1.368000   -0.995113
     51          6           0        6.201166    1.032060   -0.359021
     52          7           0        5.463556   -0.154777   -0.800712
     53          1           0        4.086461    3.175012    2.722323
     54          1           0        2.971992    3.271863    1.534606
     55          1           0        4.538991    3.005714    1.163482
     56          1           0        0.923135   -3.454199    1.667577
     57          1           0        2.557418   -3.272564    2.121720
     58          7           0        1.701186   -2.846552    1.827458
     59          6           0        1.602371   -1.526675    1.656165
     60          6           0        2.409757    0.711577    1.648317
     61          7           0        1.247299    1.256026    1.252485
     62          1           0       -0.654871    0.669327    0.764463
     63          6           0        0.322549    0.312541    1.086365
     64          7           0        0.419560   -1.009920    1.257425
     65          1           0        5.511528    0.629972    2.556342
     66          6           0        4.483413    0.389300    2.284303
     67          7           0        3.980331   -0.820800    2.269246
     68          6           0        2.666044   -0.630706    1.867688
     69          6           0        3.814475    2.820762    1.827596
     70          7           0        3.588415    1.365267    1.919369
 ---------------------------------------------------------------------

 SCF Done:  E(RwB97XD) =  -2048.66730208     A.U. after   15 cycles

 The electronic state is 1-A.
 Alpha  occ. eigenvalues --  -19.26087 -19.21905 -19.20468 -14.52608 -14.51517
 Alpha  occ. eigenvalues --  -14.49917 -14.48173 -14.47918 -14.47129 -14.46129
 Alpha  occ. eigenvalues --  -14.45573 -14.44576 -14.43402 -14.43264 -14.42535
 Alpha  occ. eigenvalues --  -14.42297 -14.42072 -14.42021 -14.41193 -14.40599
 Alpha  occ. eigenvalues --  -10.45653 -10.40625 -10.40028 -10.38895 -10.37935
 Alpha  occ. eigenvalues --  -10.37725 -10.37249 -10.36576 -10.36177 -10.36027
 Alpha  occ. eigenvalues --  -10.35155 -10.35030 -10.34658 -10.34312 -10.34226
 Alpha  occ. eigenvalues --  -10.34025 -10.33000 -10.31942 -10.31476 -10.31035
 Alpha  occ. eigenvalues --  -10.29707 -10.29240 -10.27923  -1.19747  -1.14432
 Alpha  occ. eigenvalues --   -1.13255  -1.12964  -1.12532  -1.10348  -1.09491
 Alpha  occ. eigenvalues --   -1.08724  -1.08039  -1.06226  -1.03878  -1.02560
 Alpha  occ. eigenvalues --   -1.01730  -1.00313  -0.99353  -0.98465  -0.98079
 Alpha  occ. eigenvalues --   -0.96339  -0.95739  -0.93889  -0.91101  -0.87081
 Alpha  occ. eigenvalues --   -0.85660  -0.85232  -0.84158  -0.83727  -0.83442
 Alpha  occ. eigenvalues --   -0.81813  -0.78943  -0.76353  -0.74717  -0.74136
 Alpha  occ. eigenvalues --   -0.73981  -0.73462  -0.73333  -0.72415  -0.69822
 Alpha  occ. eigenvalues --   -0.67542  -0.67271  -0.66639  -0.66193  -0.64549
 Alpha  occ. eigenvalues --   -0.64080  -0.63731  -0.63361  -0.62874  -0.61473
 Alpha  occ. eigenvalues --   -0.61406  -0.61011  -0.60060  -0.59638  -0.59205
 Alpha  occ. eigenvalues --   -0.58722  -0.58244  -0.58041  -0.57513  -0.56969
 Alpha  occ. eigenvalues --   -0.56290  -0.55954  -0.55467  -0.54815  -0.54597
 Alpha  occ. eigenvalues --   -0.54277  -0.53362  -0.53210  -0.52898  -0.52662
 Alpha  occ. eigenvalues --   -0.52362  -0.52214  -0.51860  -0.51631  -0.50887
 Alpha  occ. eigenvalues --   -0.50150  -0.49877  -0.49540  -0.49180  -0.48536
 Alpha  occ. eigenvalues --   -0.48455  -0.48298  -0.48070  -0.47514  -0.47449
 Alpha  occ. eigenvalues --   -0.47222  -0.45885  -0.45685  -0.44087  -0.42888
 Alpha  occ. eigenvalues --   -0.41997  -0.40547  -0.39723  -0.38598  -0.37442
 Alpha  occ. eigenvalues --   -0.37290  -0.37113  -0.36088  -0.35333  -0.34789
 Alpha  occ. eigenvalues --   -0.34647  -0.34515  -0.33486  -0.33100  -0.32776
 Alpha  occ. eigenvalues --   -0.32544  -0.31953  -0.31821  -0.31660  -0.31577
 Alpha  occ. eigenvalues --   -0.31091  -0.27697  -0.26919  -0.25151
 Alpha virt. eigenvalues --    0.03170   0.04527   0.06676   0.07920   0.08523
 Alpha virt. eigenvalues --    0.09145   0.09638   0.09989   0.11241   0.11947
 Alpha virt. eigenvalues --    0.12981   0.13210   0.14366   0.14478   0.14899

 Mulliken charges:
               1
     1  N   -0.313302
     2  C    0.179894
     3  C    0.053636
     4  N   -0.257194
     5  C    0.133446
     6  H    0.030041
     7  N   -0.263977
     8  C    0.133336
     9  H    0.020841
    10  N   -0.296943
    11  C    0.234125
    12  C    0.098825
    13  N   -0.047949
    14  H    0.107543
    15  H    0.087468
    16  H    0.028604
    17  H    0.034368
    18  H    0.027660
    19  N   -0.288542
    20  C    0.232240
    21  C    0.169091
    22  N   -0.060773
    23  H    0.099751
    24  H    0.108603
    25  N   -0.280041
    26  C    0.186442
    27  N   -0.113293
    28  H    0.125323
    29  C    0.127016
    30  O   -0.321395
    31  C    0.028200
    32  N   -0.220025
    33  C    0.110396
    34  H    0.024746
    35  H    0.025291
    36  H    0.024194
    37  H    0.014704
    38  H    0.049269
    39  H    0.067140
    40  H    0.071156
    41  H    0.031656
    42  C   -0.107262
    43  O   -0.265075
    44  C    0.183426
    45  H    0.133811
    46  N   -0.131267
    47  O   -0.346975
    48  C    0.352396
    49  H    0.046491
    50  C    0.176940
    51  C    0.033993
    52  N   -0.285628
    53  H    0.035302
    54  H    0.016960
    55  H    0.014724
    56  H    0.118834
    57  H    0.119575
    58  N   -0.068939
    59  C    0.126548
    60  C    0.226499
    61  N   -0.304258
    62  H    0.046898
    63  C    0.190028
    64  N   -0.307506
    65  H    0.030093
    66  C    0.104720
    67  N   -0.249808
    68  C    0.010126
    69  C    0.184296
    70  N   -0.286515
 Sum of Mulliken charges =  -0.00000

 Dipole moment (field-independent basis, Debye):
    X=              5.3290    Y=              5.7555    Z=              4.4628  Tot=              9.0244
 Quadrupole moment (field-independent basis, Debye-Ang):
   XX=           -140.2722   YY=           -229.8543   ZZ=           -258.2354
   XY=             15.6995   XZ=             13.0496   YZ=            -10.3961

 Normal termination of Gaussian 16 at Sat Jan 20 21:07:07 2018.
