 Gaussian 16, Revision A.03,
 Gaussian 16:  EM64L-G16RevA.03 25-Dec-2016

 ---------------------------------------
 #p wb97xd/cc-pvdz sp scf=(maxcycles=20)
 ---------------------------------------

 ------------------
 Base pair stacking
 ------------------
 Symbolic Z-matrix:
 Charge =  0 Multiplicity = 1

                         Standard orientation:
 ---------------------------------------------------------------------
 Center     Atomic      Atomic             Coordinates (Angstroms)
 Number     Number       Type             X           Y           Z
 ---------------------------------------------------------------------
      1          7           0       -7.120667   -0.964411    0.184686
      2          6           0       -8.423027   -0.273854    0.114014
      3          6           0       -4.984062   -1.408931    0.457910
      4          7           0       -5.583430   -2.601751    0.080216
      5          6           0       -6.846667   -2.286205   -0.069276
      6          1           0       -7.629311   -2.984943   -0.366225
      7          7           0       -3.392130    0.206135    1.106191
      8          6           0       -4.402288    1.081705    1.129055
      9          1           0       -4.130133    2.098449    1.409117
     10          7           0       -5.692103    0.890797    0.859176
     11          6           0       -5.918989   -0.390735    0.526560
     12          6           0       -3.652972   -1.075427    0.767601
     13          7           0       -2.645936   -1.950925    0.744207
     14          1           0       -2.792917   -2.909896    0.499311
     15          1           0       -1.710755   -1.678254    0.970558
     16          1           0       -9.062973   -0.700044    0.753558
     17          1           0       -8.304142    0.688948    0.354871
     18          1           0       -8.788198   -0.340784   -0.814514
     19          7           0       -2.750256    1.835935   -1.548125
     20          6           0       -1.401249    1.828356   -1.287041
     21          6           0       -3.663589    2.967029   -1.288955
     22          7           0        1.443328    3.434845   -0.108350
     23          1           0        2.415094    3.228015    0.001761
     24          1           0        1.136603    4.341475    0.182635
     25          7           0       -0.689157    2.844726   -0.754170
     26          6           0        0.589110    2.537418   -0.622972
     27          7           0        1.130598    1.327860   -0.985286
     28          1           0        2.118874    1.180684   -0.848856
     29          6           0        0.416823    0.267784   -1.535408
     30          8           0        1.001678   -0.782605   -1.827603
     31          6           0       -0.957914    0.582992   -1.682426
     32          7           0       -2.007482   -0.175995   -2.181684
     33          6           0       -3.047984    0.606136   -2.082521
     34          1           0       -4.059841    0.334870   -2.385572
     35          1           0       -4.376701    2.682005   -0.649405
     36          1           0       -3.147298    3.725848   -0.894128
     37          1           0       -4.083689    3.261648   -2.146592
     38          1           0        6.957823    0.847744    0.676417
     39          1           0        7.298067    1.202583   -1.015610
     40          1           0        5.852564    1.863068   -0.250345
     41          1           0        6.164459   -3.464094   -1.304796
     42          6           0        5.667664   -2.499252   -1.202356
     43          8           0        3.529068   -3.329101   -1.806435
     44          6           0        4.264129   -2.403083   -1.464420
     45          1           0        2.746250   -1.030465   -1.481793
     46          7           0        3.735218   -1.138071   -1.305488
     47          8           0        3.850633    1.076884   -0.817781
     48          6           0        4.407027   -0.001104   -0.931964
     49          1           0        7.418453   -1.427856   -0.625604
     50          6           0        6.350013   -1.407935   -0.836279
     51          6           0        6.516415    1.012530   -0.295221
     52          7           0        5.756790   -0.174627   -0.696934
     53          1           0        3.752241    2.923006    3.169886
     54          1           0        2.645911    3.165557    1.995448
     55          1           0        4.217030    2.956197    1.605824
     56          1           0        0.633771   -3.531830    1.252661
     57          1           0        2.263660   -3.402124    1.739212
     58          7           0        1.407216   -2.945988    1.494947
     59          6           0        1.302277   -1.615507    1.492730
     60          6           0        2.097173    0.609131    1.777016
     61          7           0        0.934602    1.194286    1.444704
     62          1           0       -0.960654    0.665918    0.870731
     63          6           0        0.016375    0.275474    1.152211
     64          7           0        0.119531   -1.057541    1.153847
     65          1           0        5.192681    0.426582    2.691736
     66          6           0        4.167936    0.217871    2.383076
     67          7           0        3.671742   -0.982724    2.209702
     68          6           0        2.359369   -0.748971    1.825299
     69          6           0        3.488752    2.684628    2.235135
     70          7           0        3.270161    1.228302    2.138599
 ---------------------------------------------------------------------

 SCF Done:  E(RwB97XD) =  -2048.71716568     A.U. after   15 cycles

 The electronic state is 1-A.
 Alpha  occ. eigenvalues --  -19.26089 -19.21912 -19.20484 -14.52557 -14.51388
 Alpha  occ. eigenvalues --  -14.49915 -14.48377 -14.47834 -14.46642 -14.46420
 Alpha  occ. eigenvalues --  -14.46221 -14.44393 -14.43171 -14.42981 -14.42580
 Alpha  occ. eigenvalues --  -14.42392 -14.42246 -14.41956 -14.41294 -14.40632
 Alpha  occ. eigenvalues --  -10.45628 -10.41021 -10.40021 -10.38510 -10.38053
 Alpha  occ. eigenvalues --  -10.37703 -10.37015 -10.36568 -10.35909 -10.35902
 Alpha  occ. eigenvalues --  -10.35216 -10.34618 -10.34317 -10.34306 -10.34154
 Alpha  occ. eigenvalues --  -10.33596 -10.33040 -10.31881 -10.31392 -10.31013
 Alpha  occ. eigenvalues --  -10.30039 -10.29769 -10.27975  -1.19630  -1.14156
 Alpha  occ. eigenvalues --   -1.13124  -1.12953  -1.12535  -1.10363  -1.09438
 Alpha  occ. eigenvalues --   -1.08520  -1.07837  -1.06189  -1.03466  -1.02495
 Alpha  occ. eigenvalues --   -1.01597  -1.00066  -0.99580  -0.98384  -0.98068
 Alpha  occ. eigenvalues --   -0.96313  -0.95475  -0.93816  -0.91048  -0.86689
 Alpha  occ. eigenvalues --   -0.85233  -0.85096  -0.84046  -0.83871  -0.83396
 Alpha  occ. eigenvalues --   -0.82077  -0.78898  -0.75902  -0.74573  -0.74041
 Alpha  occ. eigenvalues --   -0.73703  -0.73456  -0.73330  -0.72299  -0.69340
 Alpha  occ. eigenvalues --   -0.67435  -0.67334  -0.66584  -0.65682  -0.64461
 Alpha  occ. eigenvalues --   -0.63890  -0.63590  -0.63188  -0.62647  -0.61659
 Alpha  occ. eigenvalues --   -0.61271  -0.60390  -0.59559  -0.59503  -0.59069
 Alpha  occ. eigenvalues --   -0.58600  -0.58195  -0.57623  -0.57453  -0.56900
 Alpha  occ. eigenvalues --   -0.56305  -0.55955  -0.55222  -0.54497  -0.54397
 Alpha  occ. eigenvalues --   -0.53794  -0.53458  -0.53039  -0.52833  -0.52688
 Alpha  occ. eigenvalues --   -0.52555  -0.52122  -0.51763  -0.51698  -0.51176
 Alpha  occ. eigenvalues --   -0.50124  -0.49945  -0.49453  -0.49042  -0.48595
 Alpha  occ. eigenvalues --   -0.48555  -0.48206  -0.48105  -0.47747  -0.47433
 Alpha  occ. eigenvalues --   -0.47274  -0.46034  -0.45392  -0.44033  -0.42848
 Alpha  occ. eigenvalues --   -0.42249  -0.39737  -0.39626  -0.38400  -0.37264
 Alpha  occ. eigenvalues --   -0.37159  -0.36911  -0.36023  -0.35464  -0.34794
 Alpha  occ. eigenvalues --   -0.34654  -0.34569  -0.33125  -0.32992  -0.32798
 Alpha  occ. eigenvalues --   -0.32538  -0.32336  -0.31921  -0.31765  -0.31670
 Alpha  occ. eigenvalues --   -0.31313  -0.28072  -0.26927  -0.25324
 Alpha virt. eigenvalues --    0.03206   0.04765   0.06766   0.08167   0.08422
 Alpha virt. eigenvalues --    0.09133   0.09624   0.09801   0.11123   0.12170
 Alpha virt. eigenvalues --    0.12950   0.13022   0.14428   0.14692   0.14842

 Mulliken charges:
               1
     1  N   -0.311322
     2  C    0.180461
     3  C    0.040540
     4  N   -0.257129
     5  C    0.133924
     6  H    0.030405
     7  N   -0.269095
     8  C    0.118474
     9  H    0.024287
    10  N   -0.289955
    11  C    0.232387
    12  C    0.099407
    13  N   -0.043349
    14  H    0.107576
    15  H    0.088442
    16  H    0.028349
    17  H    0.035381
    18  H    0.027262
    19  N   -0.291643
    20  C    0.224391
    21  C    0.180865
    22  N   -0.086540
    23  H    0.098878
    24  H    0.116612
    25  N   -0.283320
    26  C    0.206453
    27  N   -0.107809
    28  H    0.122781
    29  C    0.129453
    30  O   -0.321293
    31  C    0.012504
    32  N   -0.222517
    33  C    0.119754
    34  H    0.027743
    35  H    0.019546
    36  H    0.025838
    37  H    0.021217
    38  H    0.054160
    39  H    0.065845
    40  H    0.075079
    41  H    0.031406
    42  C   -0.104822
    43  O   -0.268235
    44  C    0.183598
    45  H    0.134793
    46  N   -0.132604
    47  O   -0.351074
    48  C    0.354390
    49  H    0.046505
    50  C    0.174050
    51  C    0.031527
    52  N   -0.290436
    53  H    0.033597
    54  H    0.023571
    55  H    0.023473
    56  H    0.118353
    57  H    0.119719
    58  N   -0.064468
    59  C    0.132078
    60  C    0.223382
    61  N   -0.266306
    62  H    0.064237
    63  C    0.143249
    64  N   -0.300910
    65  H    0.024983
    66  C    0.115356
    67  N   -0.253513
    68  C    0.014348
    69  C    0.168127
    70  N   -0.292414
 Sum of Mulliken charges =  -0.00000

 Dipole moment (field-independent basis, Debye):
    X=              5.3501    Y=              5.7984    Z=              3.9833  Tot=              8.8381
 Quadrupole moment (field-independent basis, Debye-Ang):
   XX=           -137.9831   YY=           -228.3580   ZZ=           -256.1426
   XY=             16.3549   XZ=             17.5238   YZ=             -8.4300

 Normal termination of Gaussian 16 at Sat Jan 20 13:06:15 2018.
