 Gaussian 16, Revision A.03,
 Gaussian 16:  EM64L-G16RevA.03 25-Dec-2016

 ---------------------------------------
 #p wb97xd/cc-pvdz sp scf=(maxcycles=20)
 ---------------------------------------

 ------------------
 Base pair stacking
 ------------------
 Symbolic Z-matrix:
 Charge =  0 Multiplicity = 1

                         Standard orientation:
 ---------------------------------------------------------------------
 Center     Atomic      Atomic             Coordinates (Angstroms)
 Number     Number       Type             X           Y           Z
 ---------------------------------------------------------------------
      1          7           0       -6.102299   -1.560290    0.530330
      2          6           0       -7.440609   -1.101341    0.950195
      3          6           0       -3.926504   -1.830386    0.356350
      4          7           0       -4.499000   -2.678766   -0.580249
      5          6           0       -5.786922   -2.482087   -0.437949
      6          1           0       -6.559174   -2.987479   -1.018606
      7          7           0       -2.361286   -0.666462    1.682378
      8          6           0       -3.409100   -0.072032    2.262304
      9          1           0       -3.162795    0.646454    3.042934
     10          7           0       -4.709377   -0.231113    2.023840
     11          6           0       -4.902242   -1.134443    1.048528
     12          6           0       -2.588531   -1.570479    0.704522
     13          7           0       -1.543883   -2.164913    0.124430
     14          1           0       -1.665121   -2.840444   -0.603712
     15          1           0       -0.604968   -1.955405    0.397736
     16          1           0       -7.971468   -1.879793    1.285419
     17          1           0       -7.347920   -0.423680    1.679109
     18          1           0       -7.913114   -0.688387    0.171603
     19          7           0       -3.876977    2.299610   -0.941320
     20          6           0       -2.507935    2.301108   -0.823971
     21          6           0       -4.781026    3.336026   -0.403501
     22          7           0        0.411804    3.799212    0.312937
     23          1           0        1.393916    3.614752    0.287070
     24          1           0        0.118882    4.632628    0.782339
     25          7           0       -1.764568    3.242069   -0.202637
     26          6           0       -0.473408    2.966958   -0.255988
     27          7           0        0.051640    1.855916   -0.870314
     28          1           0        1.051717    1.726529   -0.861988
     29          6           0       -0.694327    0.874688   -1.515758
     30          8           0       -0.122035   -0.089435   -2.038914
     31          6           0       -2.083239    1.156447   -1.466772
     32          7           0       -3.163914    0.450539   -1.977390
     33          6           0       -4.204122    1.164620   -1.642337
     34          1           0       -5.236621    0.908319   -1.882184
     35          1           0       -5.415552    2.921708    0.248064
     36          1           0       -4.241609    4.038437    0.059000
     37          1           0       -5.296477    3.752038   -1.151867
     38          1           0        6.031876    1.333198    0.084598
     39          1           0        6.181819    1.976065   -1.549076
     40          1           0        4.812766    2.444371   -0.540243
     41          1           0        5.122425   -2.618711   -2.504192
     42          6           0        4.619181   -1.704081   -2.190462
     43          8           0        2.446265   -2.504621   -2.704922
     44          6           0        3.193973   -1.620238   -2.288288
     45          1           0        1.654336   -0.323436   -1.919298
     46          7           0        2.658529   -0.420395   -1.865279
     47          8           0        2.778687    1.686086   -1.025332
     48          6           0        3.342290    0.664209   -1.375727
     49          1           0        6.398611   -0.676001   -1.622586
     50          6           0        5.313597   -0.662822   -1.716987
     51          6           0        5.485801    1.639318   -0.795265
     52          7           0        4.712795    0.506530   -1.311979
     53          1           0        4.816768    1.274367    4.401019
     54          1           0        3.562017    1.992558    3.644769
     55          1           0        5.082432    2.215914    3.094752
     56          1           0        1.858121   -3.371691   -0.571513
     57          1           0        3.525531   -3.342937   -0.212349
     58          7           0        2.620941   -2.930682   -0.098486
     59          6           0        2.440968   -1.841205    0.651073
     60          6           0        3.136946   -0.065361    2.073654
     61          7           0        1.910842    0.466528    2.208572
     62          1           0       -0.007565    0.125351    1.573035
     63          6           0        1.017342   -0.239062    1.518126
     64          7           0        1.195623   -1.330527    0.766788
     65          1           0        6.326964   -0.360360    2.508248
     66          6           0        5.285527   -0.482095    2.209044
     67          7           0        4.840890   -1.437301    1.429590
     68          6           0        3.479959   -1.184788    1.335567
     69          6           0        4.453989    1.560730    3.514236
     70          7           0        4.308413    0.383944    2.635604
 ---------------------------------------------------------------------

 SCF Done:  E(RwB97XD) =  -2048.74512818     A.U. after   15 cycles

 The electronic state is 1-A.
 Alpha  occ. eigenvalues --  -19.26000 -19.21956 -19.20771 -14.52509 -14.51855
 Alpha  occ. eigenvalues --  -14.48892 -14.48793 -14.47931 -14.47062 -14.46769
 Alpha  occ. eigenvalues --  -14.46536 -14.44882 -14.43406 -14.43268 -14.42139
 Alpha  occ. eigenvalues --  -14.42095 -14.41392 -14.41035 -14.40897 -14.40267
 Alpha  occ. eigenvalues --  -10.45606 -10.41328 -10.40341 -10.38875 -10.38356
 Alpha  occ. eigenvalues --  -10.37818 -10.37394 -10.36460 -10.35484 -10.35415
 Alpha  occ. eigenvalues --  -10.34996 -10.34390 -10.34104 -10.33533 -10.33405
 Alpha  occ. eigenvalues --  -10.33370 -10.33159 -10.31841 -10.31266 -10.30955
 Alpha  occ. eigenvalues --  -10.30789 -10.28522 -10.28159  -1.19561  -1.14542
 Alpha  occ. eigenvalues --   -1.13324  -1.13304  -1.11421  -1.10641  -1.09399
 Alpha  occ. eigenvalues --   -1.08674  -1.08255  -1.05052  -1.03787  -1.02658
 Alpha  occ. eigenvalues --   -1.00437  -1.00276  -0.99847  -0.98626  -0.97014
 Alpha  occ. eigenvalues --   -0.96609  -0.95854  -0.92698  -0.91049  -0.86932
 Alpha  occ. eigenvalues --   -0.85324  -0.84143  -0.84042  -0.83819  -0.82485
 Alpha  occ. eigenvalues --   -0.82433  -0.78928  -0.76206  -0.74691  -0.73986
 Alpha  occ. eigenvalues --   -0.73739  -0.73480  -0.72942  -0.71101  -0.69551
 Alpha  occ. eigenvalues --   -0.67471  -0.66637  -0.66336  -0.65899  -0.64553
 Alpha  occ. eigenvalues --   -0.63848  -0.63360  -0.62744  -0.62724  -0.61833
 Alpha  occ. eigenvalues --   -0.60560  -0.60295  -0.59659  -0.59508  -0.58716
 Alpha  occ. eigenvalues --   -0.58672  -0.58465  -0.56824  -0.56602  -0.56401
 Alpha  occ. eigenvalues --   -0.56081  -0.55416  -0.54870  -0.54672  -0.54448
 Alpha  occ. eigenvalues --   -0.53746  -0.53570  -0.53012  -0.52919  -0.52747
 Alpha  occ. eigenvalues --   -0.52608  -0.52075  -0.51899  -0.50931  -0.50307
 Alpha  occ. eigenvalues --   -0.50252  -0.49689  -0.49549  -0.49400  -0.48949
 Alpha  occ. eigenvalues --   -0.48769  -0.48439  -0.47750  -0.47566  -0.47490
 Alpha  occ. eigenvalues --   -0.47021  -0.45710  -0.45040  -0.43947  -0.43394
 Alpha  occ. eigenvalues --   -0.41206  -0.39975  -0.39552  -0.37351  -0.37330
 Alpha  occ. eigenvalues --   -0.37198  -0.37112  -0.36738  -0.35969  -0.34296
 Alpha  occ. eigenvalues --   -0.34085  -0.33646  -0.33525  -0.33373  -0.33302
 Alpha  occ. eigenvalues --   -0.32702  -0.32424  -0.32004  -0.31967  -0.30991
 Alpha  occ. eigenvalues --   -0.30470  -0.28792  -0.25731  -0.25498
 Alpha virt. eigenvalues --    0.02981   0.04844   0.07750   0.07955   0.08204
 Alpha virt. eigenvalues --    0.08927   0.09685   0.10662   0.11046   0.12025
 Alpha virt. eigenvalues --    0.13284   0.13860   0.14467   0.14517   0.15088

 Mulliken charges:
               1
     1  N   -0.310488
     2  C    0.180169
     3  C    0.057656
     4  N   -0.250513
     5  C    0.127314
     6  H    0.025744
     7  N   -0.291632
     8  C    0.134305
     9  H    0.012651
    10  N   -0.291747
    11  C    0.229908
    12  C    0.098794
    13  N   -0.043316
    14  H    0.112569
    15  H    0.091627
    16  H    0.027016
    17  H    0.033516
    18  H    0.021445
    19  N   -0.307930
    20  C    0.257998
    21  C    0.180929
    22  N   -0.121322
    23  H    0.115230
    24  H    0.118151
    25  N   -0.309934
    26  C    0.244567
    27  N   -0.148045
    28  H    0.121665
    29  C    0.186163
    30  O   -0.326089
    31  C   -0.017297
    32  N   -0.220995
    33  C    0.131003
    34  H    0.021704
    35  H    0.029837
    36  H    0.028845
    37  H    0.022534
    38  H    0.051518
    39  H    0.061579
    40  H    0.073998
    41  H    0.025392
    42  C   -0.107647
    43  O   -0.284651
    44  C    0.146740
    45  H    0.136325
    46  N   -0.113723
    47  O   -0.344567
    48  C    0.344451
    49  H    0.045624
    50  C    0.192975
    51  C    0.042374
    52  N   -0.280804
    53  H    0.033171
    54  H    0.041185
    55  H    0.021603
    56  H    0.129016
    57  H    0.114416
    58  N   -0.038346
    59  C    0.094962
    60  C    0.247896
    61  N   -0.274758
    62  H    0.034739
    63  C    0.160091
    64  N   -0.303276
    65  H    0.032897
    66  C    0.116735
    67  N   -0.254971
    68  C    0.010011
    69  C    0.181609
    70  N   -0.308596
 Sum of Mulliken charges =  -0.00000

 Dipole moment (field-independent basis, Debye):
    X=              6.4672    Y=              6.1589    Z=              3.7560  Tot=              9.6884
 Quadrupole moment (field-independent basis, Debye-Ang):
   XX=           -145.1354   YY=           -224.7175   ZZ=           -255.7825
   XY=              7.2190   XZ=              9.3845   YZ=              2.2035

 Normal termination of Gaussian 16 at Sat Jan 20 14:42:20 2018.
