 Gaussian 16, Revision A.03,
 Gaussian 16:  EM64L-G16RevA.03 25-Dec-2016

 ---------------------------------------
 #p wb97xd/cc-pvdz sp scf=(maxcycles=20)
 ---------------------------------------

 ------------------
 Base pair stacking
 ------------------
 Symbolic Z-matrix:
 Charge =  0 Multiplicity = 1

                         Standard orientation:
 ---------------------------------------------------------------------
 Center     Atomic      Atomic             Coordinates (Angstroms)
 Number     Number       Type             X           Y           Z
 ---------------------------------------------------------------------
      1          7           0       -6.388508   -1.400152    0.414067
      2          6           0       -7.725596   -0.895535    0.782245
      3          6           0       -4.215840   -1.723673    0.303819
      4          7           0       -4.785306   -2.598216   -0.610292
      5          6           0       -6.071479   -2.368307   -0.507283
      6          1           0       -6.841163   -2.881036   -1.084887
      7          7           0       -2.656132   -0.538767    1.617701
      8          6           0       -3.703555    0.101706    2.147106
      9          1           0       -3.459402    0.846911    2.902969
     10          7           0       -5.001199   -0.039476    1.884242
     11          6           0       -5.191555   -0.978628    0.942881
     12          6           0       -2.880813   -1.477983    0.672990
     13          7           0       -1.836551   -2.118396    0.143325
     14          1           0       -1.955958   -2.821158   -0.558885
     15          1           0       -0.899769   -1.917678    0.430208
     16          1           0       -8.281317   -1.647731    1.136585
     17          1           0       -7.634694   -0.190003    1.484451
     18          1           0       -8.170632   -0.505651   -0.023938
     19          7           0       -3.553223    2.334149   -1.094344
     20          6           0       -2.187571    2.311364   -0.944269
     21          6           0       -4.446116    3.411279   -0.621848
     22          7           0        0.737793    3.793240    0.199436
     23          1           0        1.715879    3.586946    0.204866
     24          1           0        0.452763    4.651687    0.626697
     25          7           0       -1.437961    3.261505   -0.344791
     26          6           0       -0.152374    2.956912   -0.355612
     27          7           0        0.361817    1.810111   -0.910537
     28          1           0        1.358297    1.659883   -0.872816
     29          6           0       -0.390723    0.818785   -1.532493
     30          8           0        0.171850   -0.178433   -2.001317
     31          6           0       -1.773770    1.131927   -1.528655
     32          7           0       -2.857828    0.428422   -2.035404
     33          6           0       -3.889312    1.177969   -1.755360
     34          1           0       -4.921449    0.933909   -2.009123
     35          1           0       -5.104636    3.038312    0.030879
     36          1           0       -3.902001    4.120818   -0.176033
     37          1           0       -4.934700    3.806412   -1.399009
     38          1           0        6.305202    1.200476    0.208754
     39          1           0        6.507214    1.770849   -1.446094
     40          1           0        5.125980    2.310195   -0.490760
     41          1           0        5.367920   -2.836330   -2.235067
     42          6           0        4.878084   -1.898802   -1.971723
     43          8           0        2.700326   -2.673692   -2.504651
     44          6           0        3.457747   -1.788754   -2.107176
     45          1           0        1.939312   -0.445052   -1.829407
     46          7           0        2.939573   -0.561059   -1.747292
     47          8           0        3.087251    1.575783   -0.992765
     48          6           0        3.635862    0.528305   -1.286822
     49          1           0        6.666401   -0.885988   -1.404328
     50          6           0        5.584426   -0.853638   -1.525259
     51          6           0        5.786599    1.480970   -0.695924
     52          7           0        5.000664    0.344239   -1.183661
     53          1           0        4.498630    1.360899    4.425349
     54          1           0        3.278048    2.073305    3.610023
     55          1           0        4.815395    2.240896    3.087931
     56          1           0        1.552861   -3.425631   -0.419968
     57          1           0        3.211742   -3.417404   -0.022312
     58          7           0        2.314186   -2.981528    0.052572
     59          6           0        2.141280   -1.857953    0.751766
     60          6           0        2.843616   -0.039215    2.115812
     61          7           0        1.626895    0.523906    2.199036
     62          1           0       -0.283431    0.197354    1.532252
     63          6           0        0.734089   -0.190816    1.517155
     64          7           0        0.905301   -1.316416    0.816226
     65          1           0        6.015351   -0.383694    2.638863
     66          6           0        4.978658   -0.495636    2.320007
     67          7           0        4.530959   -1.473026    1.570362
     68          6           0        3.178549   -1.195697    1.433251
     69          6           0        4.162942    1.617449    3.518985
     70          7           0        4.011504    0.408189    2.686658
 ---------------------------------------------------------------------

 SCF Done:  E(RwB97XD) =  -2048.74532844     A.U. after   15 cycles

 The electronic state is 1-A.
 Alpha  occ. eigenvalues --  -19.26060 -19.22108 -19.20778 -14.52587 -14.51575
 Alpha  occ. eigenvalues --  -14.49058 -14.48754 -14.48038 -14.47052 -14.46765
 Alpha  occ. eigenvalues --  -14.46203 -14.44593 -14.43058 -14.42896 -14.42200
 Alpha  occ. eigenvalues --  -14.42091 -14.41610 -14.41174 -14.40855 -14.40361
 Alpha  occ. eigenvalues --  -10.45673 -10.41311 -10.40321 -10.38507 -10.38340
 Alpha  occ. eigenvalues --  -10.37833 -10.37100 -10.36113 -10.35607 -10.35537
 Alpha  occ. eigenvalues --  -10.34691 -10.34373 -10.34294 -10.33575 -10.33354
 Alpha  occ. eigenvalues --  -10.33331 -10.33287 -10.31483 -10.31342 -10.31006
 Alpha  occ. eigenvalues --  -10.30704 -10.28701 -10.28143  -1.19623  -1.14234
 Alpha  occ. eigenvalues --   -1.13381  -1.13305  -1.11604  -1.10620  -1.09458
 Alpha  occ. eigenvalues --   -1.08668  -1.07890  -1.05168  -1.03424  -1.02738
 Alpha  occ. eigenvalues --   -1.00555  -0.99978  -0.99842  -0.98612  -0.97171
 Alpha  occ. eigenvalues --   -0.96571  -0.95499  -0.92805  -0.91079  -0.86634
 Alpha  occ. eigenvalues --   -0.85067  -0.84201  -0.84102  -0.83902  -0.82566
 Alpha  occ. eigenvalues --   -0.82432  -0.78981  -0.75884  -0.74663  -0.73758
 Alpha  occ. eigenvalues --   -0.73649  -0.73525  -0.73076  -0.71241  -0.69234
 Alpha  occ. eigenvalues --   -0.67458  -0.66698  -0.66466  -0.65587  -0.64588
 Alpha  occ. eigenvalues --   -0.63837  -0.63109  -0.62807  -0.62731  -0.61810
 Alpha  occ. eigenvalues --   -0.60396  -0.60365  -0.59586  -0.59380  -0.58561
 Alpha  occ. eigenvalues --   -0.58463  -0.58453  -0.56851  -0.56698  -0.56446
 Alpha  occ. eigenvalues --   -0.56120  -0.55496  -0.54745  -0.54549  -0.54389
 Alpha  occ. eigenvalues --   -0.53728  -0.53543  -0.52985  -0.52709  -0.52690
 Alpha  occ. eigenvalues --   -0.52496  -0.52000  -0.51789  -0.51062  -0.50414
 Alpha  occ. eigenvalues --   -0.50252  -0.49670  -0.49477  -0.49348  -0.48967
 Alpha  occ. eigenvalues --   -0.48669  -0.48398  -0.47766  -0.47591  -0.47444
 Alpha  occ. eigenvalues --   -0.47152  -0.45537  -0.45204  -0.44018  -0.43220
 Alpha  occ. eigenvalues --   -0.41376  -0.39690  -0.39607  -0.37364  -0.37333
 Alpha  occ. eigenvalues --   -0.37291  -0.36981  -0.36472  -0.35793  -0.34255
 Alpha  occ. eigenvalues --   -0.33908  -0.33648  -0.33580  -0.33482  -0.33078
 Alpha  occ. eigenvalues --   -0.32767  -0.32339  -0.32032  -0.31939  -0.31166
 Alpha  occ. eigenvalues --   -0.30570  -0.28368  -0.25974  -0.25414
 Alpha virt. eigenvalues --    0.02870   0.05107   0.07794   0.08063   0.08436
 Alpha virt. eigenvalues --    0.08928   0.09694   0.10696   0.10867   0.12004
 Alpha virt. eigenvalues --    0.13220   0.13810   0.14568   0.14632   0.15313

 Mulliken charges:
               1
     1  N   -0.310583
     2  C    0.180351
     3  C    0.051423
     4  N   -0.252068
     5  C    0.127490
     6  H    0.026390
     7  N   -0.288786
     8  C    0.133329
     9  H    0.013624
    10  N   -0.292018
    11  C    0.229370
    12  C    0.101609
    13  N   -0.042276
    14  H    0.111214
    15  H    0.092233
    16  H    0.027178
    17  H    0.033994
    18  H    0.022679
    19  N   -0.307766
    20  C    0.257720
    21  C    0.180296
    22  N   -0.120179
    23  H    0.114008
    24  H    0.117890
    25  N   -0.309491
    26  C    0.244255
    27  N   -0.144642
    28  H    0.119323
    29  C    0.178035
    30  O   -0.325382
    31  C   -0.009775
    32  N   -0.224217
    33  C    0.130118
    34  H    0.024267
    35  H    0.030908
    36  H    0.028324
    37  H    0.022385
    38  H    0.050248
    39  H    0.062440
    40  H    0.073901
    41  H    0.026671
    42  C   -0.098289
    43  O   -0.283190
    44  C    0.149578
    45  H    0.137292
    46  N   -0.120103
    47  O   -0.345967
    48  C    0.348707
    49  H    0.045840
    50  C    0.190014
    51  C    0.041967
    52  N   -0.282256
    53  H    0.032496
    54  H    0.040736
    55  H    0.020660
    56  H    0.126949
    57  H    0.115418
    58  N   -0.030804
    59  C    0.096373
    60  C    0.246868
    61  N   -0.276694
    62  H    0.034041
    63  C    0.161948
    64  N   -0.303804
    65  H    0.030953
    66  C    0.118074
    67  N   -0.252453
    68  C   -0.001528
    69  C    0.181194
    70  N   -0.308514
 Sum of Mulliken charges =  -0.00000

 Dipole moment (field-independent basis, Debye):
    X=              6.4531    Y=              6.0563    Z=              3.4898  Tot=              9.5131
 Quadrupole moment (field-independent basis, Debye-Ang):
   XX=           -143.6624   YY=           -224.8087   ZZ=           -255.1858
   XY=              7.6527   XZ=             12.3588   YZ=              1.2439

 Normal termination of Gaussian 16 at Sat Jan 20 15:30:58 2018.
