 Gaussian 16, Revision A.03,
 Gaussian 16:  EM64L-G16RevA.03 25-Dec-2016

 ---------------------------------------
 #p wb97xd/cc-pvdz sp scf=(maxcycles=20)
 ---------------------------------------

 ------------------
 Base pair stacking
 ------------------
 Symbolic Z-matrix:
 Charge =  0 Multiplicity = 1

                         Standard orientation:
 ---------------------------------------------------------------------
 Center     Atomic      Atomic             Coordinates (Angstroms)
 Number     Number       Type             X           Y           Z
 ---------------------------------------------------------------------
      1          7           0       -5.804028   -1.722798    0.653948
      2          6           0       -7.141542   -1.310516    1.122000
      3          6           0       -3.627665   -1.933635    0.416676
      4          7           0       -4.203905   -2.765522   -0.532339
      5          6           0       -5.492019   -2.605204   -0.351411
      6          1           0       -6.266824   -3.110647   -0.928613
      7          7           0       -2.056728   -0.774479    1.740116
      8          6           0       -3.103001   -0.224788    2.365194
      9          1           0       -2.853702    0.474266    3.162341
     10          7           0       -4.404870   -0.408101    2.154430
     11          6           0       -4.601410   -1.284326    1.155412
     12          6           0       -2.287677   -1.652154    0.739397
     13          7           0       -1.244574   -2.201919    0.114223
     14          1           0       -1.368544   -2.856650   -0.632235
     15          1           0       -0.304139   -1.978215    0.370516
     16          1           0       -7.644894   -2.112078    1.444953
     17          1           0       -7.046134   -0.654379    1.870007
     18          1           0       -7.643732   -0.884674    0.369365
     19          7           0       -4.203706    2.229218   -0.790434
     20          6           0       -2.832508    2.260630   -0.707534
     21          6           0       -5.117896    3.225411   -0.196656
     22          7           0        0.079276    3.793024    0.403796
     23          1           0        1.064494    3.633683    0.347283
     24          1           0       -0.221112    4.603588    0.907262
     25          7           0       -2.095866    3.199277   -0.074790
     26          6           0       -0.800348    2.957833   -0.169475
     27          7           0       -0.265135    1.880198   -0.832601
     28          1           0        0.737614    1.775236   -0.853612
     29          6           0       -1.004042    0.902019   -1.490670
     30          8           0       -0.422744   -0.030562   -2.059122
     31          6           0       -2.397522    1.147842   -1.397674
     32          7           0       -3.473980    0.432229   -1.903670
     33          6           0       -4.521836    1.109470   -1.519549
     34          1           0       -5.553819    0.835645   -1.741591
     35          1           0       -5.725310    2.775046    0.456815
     36          1           0       -4.583523    3.925758    0.274745
     37          1           0       -5.662294    3.652288   -0.917914
     38          1           0        5.748557    1.474457   -0.045716
     39          1           0        5.840822    2.172605   -1.660872
     40          1           0        4.487614    2.574694   -0.603281
     41          1           0        4.866525   -2.414017   -2.737985
     42          6           0        4.349984   -1.522507   -2.382145
     43          8           0        2.184109   -2.359405   -2.867610
     44          6           0        2.921131   -1.470650   -2.441352
     45          1           0        1.361187   -0.224521   -1.991828
     46          7           0        2.368463   -0.298439   -1.966233
     47          8           0        2.460247    1.782492   -1.061514
     48          6           0        3.038703    0.786470   -1.459002
     49          1           0        6.118593   -0.469634   -1.826007
     50          6           0        5.031486   -0.480137   -1.892646
     51          6           0        5.172758    1.794975   -0.901174
     52          7           0        4.413765    0.660585   -1.434860
     53          1           0        5.141183    1.254510    4.339254
     54          1           0        3.850556    1.965395    3.638526
     55          1           0        5.350480    2.243496    3.058034
     56          1           0        2.165979   -3.301880   -0.705841
     57          1           0        3.840978   -3.243616   -0.387931
     58          7           0        2.930104   -2.857558   -0.238034
     59          6           0        2.743762   -1.797310    0.550840
     60          6           0        3.433957   -0.051179    2.012484
     61          7           0        2.199467    0.445829    2.195394
     62          1           0        0.273893    0.078042    1.597489
     63          6           0        1.305408   -0.259117    1.505023
     64          7           0        1.490050   -1.321353    0.714346
     65          1           0        6.640269   -0.281384    2.356995
     66          6           0        5.594619   -0.419077    2.080247
     67          7           0        5.152767   -1.359573    1.281558
     68          6           0        3.784242   -1.137722    1.230012
     69          6           0        4.748857    1.560013    3.471645
     70          7           0        4.608578    0.408633    2.559144
 ---------------------------------------------------------------------

 SCF Done:  E(RwB97XD) =  -2048.74515549     A.U. after   15 cycles

 The electronic state is 1-A.
 Alpha  occ. eigenvalues --  -19.25899 -19.21977 -19.20767 -14.52331 -14.52102
 Alpha  occ. eigenvalues --  -14.48858 -14.48733 -14.47841 -14.47066 -14.46950
 Alpha  occ. eigenvalues --  -14.46798 -14.45136 -14.43748 -14.43667 -14.42123
 Alpha  occ. eigenvalues --  -14.42075 -14.41187 -14.40980 -14.40925 -14.40205
 Alpha  occ. eigenvalues --  -10.45468 -10.41365 -10.40349 -10.39215 -10.38379
 Alpha  occ. eigenvalues --  -10.37659 -10.37591 -10.36750 -10.35320 -10.35313
 Alpha  occ. eigenvalues --  -10.35267 -10.34453 -10.33926 -10.33684 -10.33445
 Alpha  occ. eigenvalues --  -10.33270 -10.33064 -10.32187 -10.31190 -10.30922
 Alpha  occ. eigenvalues --  -10.30904 -10.28381 -10.28214  -1.19451  -1.14821
 Alpha  occ. eigenvalues --   -1.13330  -1.13290  -1.11251  -1.10689  -1.09271
 Alpha  occ. eigenvalues --   -1.08695  -1.08633  -1.04962  -1.04154  -1.02568
 Alpha  occ. eigenvalues --   -1.00558  -1.00335  -0.99871  -0.98658  -0.96876
 Alpha  occ. eigenvalues --   -0.96672  -0.96209  -0.92617  -0.90953  -0.87204
 Alpha  occ. eigenvalues --   -0.85554  -0.84201  -0.83917  -0.83682  -0.82564
 Alpha  occ. eigenvalues --   -0.82319  -0.78808  -0.76515  -0.74740  -0.74297
 Alpha  occ. eigenvalues --   -0.73762  -0.73402  -0.72827  -0.70986  -0.69856
 Alpha  occ. eigenvalues --   -0.67505  -0.66520  -0.66240  -0.66217  -0.64516
 Alpha  occ. eigenvalues --   -0.63863  -0.63644  -0.62753  -0.62632  -0.61878
 Alpha  occ. eigenvalues --   -0.60663  -0.60265  -0.59934  -0.59374  -0.58992
 Alpha  occ. eigenvalues --   -0.58778  -0.58494  -0.56852  -0.56518  -0.56336
 Alpha  occ. eigenvalues --   -0.56029  -0.55359  -0.54916  -0.54753  -0.54370
 Alpha  occ. eigenvalues --   -0.53769  -0.53609  -0.53173  -0.53054  -0.52985
 Alpha  occ. eigenvalues --   -0.52508  -0.52349  -0.51803  -0.50809  -0.50285
 Alpha  occ. eigenvalues --   -0.50219  -0.49635  -0.49570  -0.49471  -0.48959
 Alpha  occ. eigenvalues --   -0.48767  -0.48491  -0.47791  -0.47614  -0.47505
 Alpha  occ. eigenvalues --   -0.46912  -0.45895  -0.44872  -0.44126  -0.43443
 Alpha  occ. eigenvalues --   -0.41046  -0.40256  -0.39471  -0.37481  -0.37380
 Alpha  occ. eigenvalues --   -0.37347  -0.37056  -0.36992  -0.36117  -0.34399
 Alpha  occ. eigenvalues --   -0.34162  -0.33817  -0.33481  -0.33316  -0.33311
 Alpha  occ. eigenvalues --   -0.32694  -0.32442  -0.32042  -0.31981  -0.30845
 Alpha  occ. eigenvalues --   -0.30388  -0.29087  -0.25710  -0.25453
 Alpha virt. eigenvalues --    0.03210   0.04508   0.07511   0.07919   0.08171
 Alpha virt. eigenvalues --    0.09054   0.09651   0.10598   0.11129   0.12079
 Alpha virt. eigenvalues --    0.13250   0.13719   0.14394   0.14464   0.14977

 Mulliken charges:
               1
     1  N   -0.310085
     2  C    0.179876
     3  C    0.061787
     4  N   -0.249173
     5  C    0.129263
     6  H    0.025140
     7  N   -0.294420
     8  C    0.135018
     9  H    0.011571
    10  N   -0.291315
    11  C    0.231844
    12  C    0.096154
    13  N   -0.044495
    14  H    0.113606
    15  H    0.088132
    16  H    0.026806
    17  H    0.033148
    18  H    0.020146
    19  N   -0.307593
    20  C    0.258842
    21  C    0.181706
    22  N   -0.122294
    23  H    0.116410
    24  H    0.118463
    25  N   -0.310569
    26  C    0.245580
    27  N   -0.149002
    28  H    0.121317
    29  C    0.192261
    30  O   -0.325801
    31  C   -0.020731
    32  N   -0.218627
    33  C    0.128660
    34  H    0.019553
    35  H    0.028496
    36  H    0.029508
    37  H    0.022943
    38  H    0.053160
    39  H    0.061040
    40  H    0.074070
    41  H    0.023307
    42  C   -0.111780
    43  O   -0.283540
    44  C    0.149898
    45  H    0.133024
    46  N   -0.106991
    47  O   -0.344968
    48  C    0.339415
    49  H    0.045361
    50  C    0.187287
    51  C    0.042170
    52  N   -0.279773
    53  H    0.033739
    54  H    0.041671
    55  H    0.022557
    56  H    0.128317
    57  H    0.115641
    58  N   -0.042813
    59  C    0.085850
    60  C    0.243128
    61  N   -0.271971
    62  H    0.033550
    63  C    0.161616
    64  N   -0.300810
    65  H    0.034446
    66  C    0.117542
    67  N   -0.257330
    68  C    0.027413
    69  C    0.181950
    70  N   -0.308300
 Sum of Mulliken charges =  -0.00000

 Dipole moment (field-independent basis, Debye):
    X=              6.4229    Y=              6.2672    Z=              3.9540  Tot=              9.8064
 Quadrupole moment (field-independent basis, Debye-Ang):
   XX=           -146.6613   YY=           -224.5772   ZZ=           -256.1427
   XY=              7.0279   XZ=              6.2149   YZ=              2.9709

 Normal termination of Gaussian 16 at Sat Jan 20 14:05:18 2018.
