 Gaussian 16, Revision A.03,
 Gaussian 16:  EM64L-G16RevA.03 25-Dec-2016

 ---------------------------------------
 #p wb97xd/cc-pvdz sp scf=(maxcycles=20)
 ---------------------------------------

 ------------------
 Base pair stacking
 ------------------
 Symbolic Z-matrix:
 Charge =  0 Multiplicity = 1

                         Standard orientation:
 ---------------------------------------------------------------------
 Center     Atomic      Atomic             Coordinates (Angstroms)
 Number     Number       Type             X           Y           Z
 ---------------------------------------------------------------------
      1          7           0        5.763579   -1.226064   -1.039666
      2          6           0        7.097276   -0.594914   -1.069678
      3          6           0        3.591551   -1.565287   -1.107081
      4          7           0        4.170264   -2.802690   -0.864893
      5          6           0        5.455672   -2.548801   -0.833970
      6          1           0        6.231289   -3.295936   -0.663275
      7          7           0        2.018407    0.150444   -1.487129
      8          6           0        3.060771    0.983827   -1.568015
      9          1           0        2.809017    2.026225   -1.758504
     10          7           0        4.361308    0.724098   -1.449495
     11          6           0        4.561105   -0.583769   -1.217168
     12          6           0        2.252570   -1.159211   -1.252524
     13          7           0        1.213362   -1.992678   -1.171438
     14          1           0        1.339806   -2.970194   -0.999103
     15          1           0        0.273527   -1.668589   -1.280127
     16          1           0        7.645963   -1.006374   -1.797569
     17          1           0        6.999345    0.385011   -1.240775
     18          1           0        7.554063   -0.734127   -0.191065
     19          7           0        4.264522    1.575881    1.264655
     20          6           0        2.896539    1.637228    1.151054
     21          6           0        5.202300    2.648757    0.877055
     22          7           0        0.028659    3.372453    0.242175
     23          1           0       -0.958846    3.217334    0.243409
     24          1           0        0.349017    4.254122   -0.105308
     25          7           0        2.184937    2.679539    0.670140
     26          6           0        0.885599    2.440625    0.686314
     27          7           0        0.324073    1.271106    1.138451
     28          1           0       -0.679561    1.175888    1.113653
     29          6           0        1.036923    0.185467    1.637541
     30          8           0        0.433062   -0.824299    2.020259
     31          6           0        2.434167    0.427265    1.626461
     32          7           0        3.490620   -0.377498    2.030389
     33          6           0        4.553753    0.343493    1.797766
     34          1           0        5.576994    0.023367    1.997222
     35          1           0        5.825238    2.310764    0.172421
     36          1           0        4.686581    3.426152    0.519341
     37          1           0        5.728543    2.938404    1.675802
     38          1           0       -5.667017    1.077855    0.129584
     39          1           0       -5.801114    1.487967    1.837933
     40          1           0       -4.415190    2.050538    0.903016
     41          1           0       -4.889843   -3.226821    2.132642
     42          6           0       -4.357131   -2.293428    1.950384
     43          8           0       -2.211976   -3.226895    2.342865
     44          6           0       -2.930260   -2.269347    2.056616
     45          1           0       -1.349466   -0.982769    1.871844
     46          7           0       -2.356067   -1.039316    1.806402
     47          8           0       -2.407393    1.167400    1.272630
     48          6           0       -3.003915    0.124617    1.476127
     49          1           0       -6.101668   -1.139696    1.536472
     50          6           0       -5.017036   -1.174301    1.629926
     51          6           0       -5.113990    1.239226    1.042921
     52          7           0       -4.378536    0.020937    1.393115
     53          1           0       -5.166689    3.279154   -2.613113
     54          1           0       -3.933306    3.403088   -1.552212
     55          1           0       -5.463131    3.234221   -1.008896
     56          1           0       -2.172390   -3.403944   -1.414831
     57          1           0       -3.836315   -3.177954   -1.715433
     58          7           0       -2.938470   -2.773146   -1.538730
     59          6           0       -2.771280   -1.450764   -1.471518
     60          6           0       -3.485836    0.817793   -1.540850
     61          7           0       -2.268579    1.333313   -1.302200
     62          1           0       -0.350676    0.693515   -0.966155
     63          6           0       -1.369115    0.361459   -1.163088
     64          7           0       -1.534583   -0.963581   -1.230069
     65          1           0       -6.665219    0.818710   -2.127088
     66          6           0       -5.624774    0.549642   -1.942636
     67          7           0       -5.170303   -0.678621   -1.892638
     68          6           0       -3.815352   -0.522875   -1.638505
     69          6           0       -4.818336    2.972733   -1.727255
     70          7           0       -4.659724    1.505512   -1.738384
 ---------------------------------------------------------------------

 SCF Done:  E(RwB97XD) =  -2048.73036997     A.U. after   15 cycles

 The electronic state is 1-A.
 Alpha  occ. eigenvalues --  -19.25313 -19.21523 -19.20502 -14.52534 -14.51982
 Alpha  occ. eigenvalues --  -14.49257 -14.48225 -14.48058 -14.47364 -14.46688
 Alpha  occ. eigenvalues --  -14.46345 -14.45833 -14.44359 -14.44348 -14.42883
 Alpha  occ. eigenvalues --  -14.41797 -14.41766 -14.41373 -14.40632 -14.40566
 Alpha  occ. eigenvalues --  -10.44878 -10.41030 -10.39950 -10.39647 -10.38215
 Alpha  occ. eigenvalues --  -10.38069 -10.37324 -10.37289 -10.35912 -10.35690
 Alpha  occ. eigenvalues --  -10.34698 -10.34453 -10.34414 -10.33949 -10.33796
 Alpha  occ. eigenvalues --  -10.33324 -10.33060 -10.32833 -10.31736 -10.30594
 Alpha  occ. eigenvalues --  -10.30125 -10.28892 -10.27826  -1.19111  -1.15546
 Alpha  occ. eigenvalues --   -1.13036  -1.12566  -1.11786  -1.10280  -1.09365
 Alpha  occ. eigenvalues --   -1.08872  -1.08360  -1.05510  -1.04829  -1.02052
 Alpha  occ. eigenvalues --   -1.01270  -1.00999  -0.99477  -0.98373  -0.97464
 Alpha  occ. eigenvalues --   -0.96876  -0.96226  -0.93189  -0.90592  -0.87922
 Alpha  occ. eigenvalues --   -0.86291  -0.84456  -0.83773  -0.83420  -0.82868
 Alpha  occ. eigenvalues --   -0.81990  -0.78419  -0.77252  -0.75085  -0.74340
 Alpha  occ. eigenvalues --   -0.73479  -0.73325  -0.72958  -0.71507  -0.70597
 Alpha  occ. eigenvalues --   -0.67136  -0.66930  -0.66837  -0.66139  -0.64450
 Alpha  occ. eigenvalues --   -0.64233  -0.63544  -0.63235  -0.62531  -0.61878
 Alpha  occ. eigenvalues --   -0.61514  -0.60894  -0.60651  -0.59702  -0.59157
 Alpha  occ. eigenvalues --   -0.58217  -0.58084  -0.57532  -0.57091  -0.56293
 Alpha  occ. eigenvalues --   -0.55977  -0.55779  -0.55474  -0.54222  -0.54143
 Alpha  occ. eigenvalues --   -0.53831  -0.53738  -0.53400  -0.53221  -0.52889
 Alpha  occ. eigenvalues --   -0.52628  -0.52355  -0.52198  -0.51221  -0.50643
 Alpha  occ. eigenvalues --   -0.49997  -0.49778  -0.49332  -0.49084  -0.48744
 Alpha  occ. eigenvalues --   -0.48427  -0.48218  -0.48053  -0.47500  -0.47099
 Alpha  occ. eigenvalues --   -0.46928  -0.45758  -0.45284  -0.44702  -0.43034
 Alpha  occ. eigenvalues --   -0.41350  -0.40955  -0.39184  -0.37911  -0.37827
 Alpha  occ. eigenvalues --   -0.37707  -0.37164  -0.36921  -0.36078  -0.34792
 Alpha  occ. eigenvalues --   -0.34395  -0.34038  -0.33856  -0.33479  -0.32817
 Alpha  occ. eigenvalues --   -0.32415  -0.32273  -0.31709  -0.31646  -0.31019
 Alpha  occ. eigenvalues --   -0.30888  -0.29364  -0.26007  -0.25216
 Alpha virt. eigenvalues --    0.03514   0.03707   0.06920   0.07165   0.08507
 Alpha virt. eigenvalues --    0.08872   0.09957   0.10348   0.11015   0.12328
 Alpha virt. eigenvalues --    0.13186   0.13937   0.13983   0.14108   0.14675

 Mulliken charges:
               1
     1  N   -0.308553
     2  C    0.173675
     3  C    0.078732
     4  N   -0.256239
     5  C    0.133867
     6  H    0.027296
     7  N   -0.285362
     8  C    0.141467
     9  H    0.014744
    10  N   -0.284723
    11  C    0.222415
    12  C    0.088357
    13  N   -0.050439
    14  H    0.109253
    15  H    0.085096
    16  H    0.029057
    17  H    0.036423
    18  H    0.024264
    19  N   -0.272666
    20  C    0.206135
    21  C    0.186364
    22  N   -0.105424
    23  H    0.113963
    24  H    0.114963
    25  N   -0.293419
    26  C    0.219720
    27  N   -0.139522
    28  H    0.121080
    29  C    0.175704
    30  O   -0.322469
    31  C    0.001450
    32  N   -0.217627
    33  C    0.116729
    34  H    0.014255
    35  H    0.015840
    36  H    0.027122
    37  H    0.019351
    38  H    0.039622
    39  H    0.057256
    40  H    0.069048
    41  H    0.025897
    42  C   -0.110575
    43  O   -0.267930
    44  C    0.171891
    45  H    0.130931
    46  N   -0.118192
    47  O   -0.330418
    48  C    0.329437
    49  H    0.044586
    50  C    0.172550
    51  C    0.055445
    52  N   -0.276330
    53  H    0.038042
    54  H    0.039677
    55  H    0.022696
    56  H    0.123972
    57  H    0.119173
    58  N   -0.061341
    59  C    0.101486
    60  C    0.191201
    61  N   -0.249763
    62  H    0.041778
    63  C    0.139003
    64  N   -0.296551
    65  H    0.039223
    66  C    0.104903
    67  N   -0.245038
    68  C    0.051945
    69  C    0.178905
    70  N   -0.293408
 Sum of Mulliken charges =  -0.00000

 Dipole moment (field-independent basis, Debye):
    X=             -6.0490    Y=              6.5403    Z=             -4.0542  Tot=              9.7879
 Quadrupole moment (field-independent basis, Debye-Ang):
   XX=           -147.6149   YY=           -227.3655   ZZ=           -259.8737
   XY=             -9.6133   XZ=              1.7044   YZ=             11.8503

 Normal termination of Gaussian 16 at Sat Jan 20 13:53:38 2018.
