 Gaussian 16, Revision A.03,
 Gaussian 16:  EM64L-G16RevA.03 25-Dec-2016

 ---------------------------------------
 #p wb97xd/cc-pvdz sp scf=(maxcycles=20)
 ---------------------------------------

 ------------------
 Base pair stacking
 ------------------
 Symbolic Z-matrix:
 Charge =  0 Multiplicity = 1

                         Standard orientation:
 ---------------------------------------------------------------------
 Center     Atomic      Atomic             Coordinates (Angstroms)
 Number     Number       Type             X           Y           Z
 ---------------------------------------------------------------------
      1          7           0       -6.603373   -1.098626    0.480893
      2          6           0       -7.920137   -0.432224    0.474060
      3          6           0       -4.450391   -1.507795    0.666800
      4          7           0       -5.040494   -2.702405    0.280272
      5          6           0       -6.313970   -2.408090    0.183736
      6          1           0       -7.093559   -3.114465   -0.103014
      7          7           0       -2.866708    0.121594    1.299255
      8          6           0       -3.891615    0.976346    1.380232
      9          1           0       -3.628653    1.990956    1.676330
     10          7           0       -5.186485    0.766917    1.151452
     11          6           0       -5.401146   -0.510155    0.794490
     12          6           0       -3.115515   -1.156036    0.937546
     13          7           0       -2.093745   -2.010758    0.856143
     14          1           0       -2.231448   -2.966051    0.592223
     15          1           0       -1.156306   -1.725494    1.056096
     16          1           0       -8.528600   -0.886640    1.124796
     17          1           0       -7.810713    0.526447    0.735027
     18          1           0       -8.317106   -0.483231   -0.442351
     19          7           0       -3.337548    1.809658   -1.472818
     20          6           0       -1.980128    1.822067   -1.259978
     21          6           0       -4.262001    2.915829   -1.152688
     22          7           0        0.874378    3.454302   -0.142233
     23          1           0        1.853166    3.263896   -0.071934
     24          1           0        0.561382    4.347235    0.182474
     25          7           0       -1.268507    2.838674   -0.726928
     26          6           0        0.019177    2.553341   -0.648990
     27          7           0        0.569851    1.364009   -1.061005
     28          1           0        1.564970    1.232905   -0.963471
     29          6           0       -0.143253    0.304114   -1.612346
     30          8           0        0.450294   -0.727015   -1.951794
     31          6           0       -1.528044    0.595842   -1.702468
     32          7           0       -2.580471   -0.170957   -2.183431
     33          6           0       -3.631208    0.587894   -2.027534
     34          1           0       -4.648042    0.304454   -2.301364
     35          1           0       -4.946223    2.601073   -0.495741
     36          1           0       -3.746153    3.674602   -0.757167
     37          1           0       -4.718071    3.223359   -1.987099
     38          1           0        6.460966    0.957200    0.380384
     39          1           0        6.733515    1.360552   -1.313041
     40          1           0        5.304319    1.973341   -0.480425
     41          1           0        5.677817   -3.318850   -1.680840
     42          6           0        5.167040   -2.366788   -1.536283
     43          8           0        3.024041   -3.223180   -2.085163
     44          6           0        3.753449   -2.291690   -1.745904
     45          1           0        2.210495   -0.949109   -1.674456
     46          7           0        3.206998   -1.041635   -1.536109
     47          8           0        3.298367    1.162362   -0.996439
     48          6           0        3.870384    0.098665   -1.157731
     49          1           0        6.917051   -1.275898   -0.994788
     50          6           0        5.841552   -1.271712   -1.166888
     51          6           0        5.981936    1.137368   -0.570482
     52          7           0        5.230731   -0.054125   -0.975182
     53          1           0        4.295061    2.926039    3.177134
     54          1           0        3.142912    3.175917    2.049216
     55          1           0        4.702670    3.007165    1.598940
     56          1           0        1.231120   -3.539147    1.207572
     57          1           0        2.874729   -3.389609    1.639203
     58          7           0        2.001675   -2.944440    1.437157
     59          6           0        1.871832   -1.616634    1.472612
     60          6           0        2.634641    0.615432    1.785207
     61          7           0        1.450133    1.185735    1.509337
     62          1           0       -0.454300    0.634704    0.989591
     63          6           0        0.539347    0.256636    1.226221
     64          7           0        0.667432   -1.073728    1.190191
     65          1           0        5.763879    0.470993    2.584716
     66          6           0        4.732798    0.249949    2.307329
     67          7           0        4.253250   -0.955474    2.121084
     68          6           0        2.923781   -0.738044    1.789505
     69          6           0        4.002677    2.705818    2.246530
     70          7           0        3.808062    1.248330    2.120677
 ---------------------------------------------------------------------

 SCF Done:  E(RwB97XD) =  -2048.73801478     A.U. after   15 cycles

 The electronic state is 1-A.
 Alpha  occ. eigenvalues --  -19.25926 -19.21911 -19.20499 -14.52483 -14.51775
 Alpha  occ. eigenvalues --  -14.49650 -14.48327 -14.47853 -14.47176 -14.46447
 Alpha  occ. eigenvalues --  -14.46121 -14.44754 -14.43399 -14.43083 -14.42984
 Alpha  occ. eigenvalues --  -14.42237 -14.41955 -14.41846 -14.40977 -14.40583
 Alpha  occ. eigenvalues --  -10.45531 -10.40795 -10.40029 -10.39049 -10.37981
 Alpha  occ. eigenvalues --  -10.37655 -10.37355 -10.36402 -10.36267 -10.35781
 Alpha  occ. eigenvalues --  -10.35118 -10.34880 -10.34264 -10.34038 -10.33984
 Alpha  occ. eigenvalues --  -10.33948 -10.33053 -10.31770 -10.31694 -10.30946
 Alpha  occ. eigenvalues --  -10.29791 -10.29390 -10.27836  -1.19549  -1.14486
 Alpha  occ. eigenvalues --   -1.13052  -1.12950  -1.12227  -1.10311  -1.09354
 Alpha  occ. eigenvalues --   -1.08449  -1.08229  -1.05870  -1.03926  -1.02497
 Alpha  occ. eigenvalues --   -1.01328  -1.00317  -0.99377  -0.98325  -0.97794
 Alpha  occ. eigenvalues --   -0.96204  -0.95943  -0.93533  -0.90986  -0.87036
 Alpha  occ. eigenvalues --   -0.85525  -0.84816  -0.83970  -0.83693  -0.83146
 Alpha  occ. eigenvalues --   -0.81874  -0.78838  -0.76343  -0.74346  -0.74119
 Alpha  occ. eigenvalues --   -0.73727  -0.73427  -0.73302  -0.71958  -0.69749
 Alpha  occ. eigenvalues --   -0.67163  -0.67087  -0.66524  -0.66083  -0.64423
 Alpha  occ. eigenvalues --   -0.63743  -0.63500  -0.63416  -0.62574  -0.61411
 Alpha  occ. eigenvalues --   -0.61016  -0.60869  -0.59980  -0.59484  -0.59001
 Alpha  occ. eigenvalues --   -0.58484  -0.58020  -0.57461  -0.57298  -0.56498
 Alpha  occ. eigenvalues --   -0.56094  -0.55930  -0.54963  -0.54842  -0.54337
 Alpha  occ. eigenvalues --   -0.54062  -0.53335  -0.53024  -0.52751  -0.52533
 Alpha  occ. eigenvalues --   -0.52524  -0.52345  -0.52011  -0.51470  -0.50966
 Alpha  occ. eigenvalues --   -0.49895  -0.49850  -0.49396  -0.49027  -0.48703
 Alpha  occ. eigenvalues --   -0.48516  -0.48139  -0.47935  -0.47759  -0.47439
 Alpha  occ. eigenvalues --   -0.47227  -0.45570  -0.45458  -0.44060  -0.43517
 Alpha  occ. eigenvalues --   -0.42010  -0.40291  -0.39514  -0.38138  -0.37328
 Alpha  occ. eigenvalues --   -0.37158  -0.37053  -0.36575  -0.35555  -0.34506
 Alpha  occ. eigenvalues --   -0.34342  -0.34038  -0.33733  -0.33125  -0.33089
 Alpha  occ. eigenvalues --   -0.32524  -0.32037  -0.31871  -0.31739  -0.31637
 Alpha  occ. eigenvalues --   -0.31254  -0.28747  -0.26659  -0.25078
 Alpha virt. eigenvalues --    0.03162   0.04699   0.07093   0.07890   0.08486
 Alpha virt. eigenvalues --    0.09238   0.09942   0.10022   0.10982   0.11550
 Alpha virt. eigenvalues --    0.13096   0.13322   0.14414   0.14707   0.14871

 Mulliken charges:
               1
     1  N   -0.311705
     2  C    0.179722
     3  C    0.057353
     4  N   -0.256108
     5  C    0.132145
     6  H    0.028995
     7  N   -0.273673
     8  C    0.131435
     9  H    0.018665
    10  N   -0.290873
    11  C    0.229076
    12  C    0.101535
    13  N   -0.046058
    14  H    0.108615
    15  H    0.088667
    16  H    0.028302
    17  H    0.034129
    18  H    0.026123
    19  N   -0.292157
    20  C    0.245221
    21  C    0.176014
    22  N   -0.089523
    23  H    0.110324
    24  H    0.111936
    25  N   -0.295145
    26  C    0.208433
    27  N   -0.129139
    28  H    0.123300
    29  C    0.143523
    30  O   -0.322467
    31  C    0.014594
    32  N   -0.222052
    33  C    0.116590
    34  H    0.022419
    35  H    0.021486
    36  H    0.024697
    37  H    0.019536
    38  H    0.043974
    39  H    0.064895
    40  H    0.074795
    41  H    0.029917
    42  C   -0.106651
    43  O   -0.267862
    44  C    0.177116
    45  H    0.134028
    46  N   -0.129312
    47  O   -0.343286
    48  C    0.346081
    49  H    0.045863
    50  C    0.179680
    51  C    0.036624
    52  N   -0.281864
    53  H    0.034424
    54  H    0.031682
    55  H    0.014483
    56  H    0.121692
    57  H    0.119431
    58  N   -0.061258
    59  C    0.120543
    60  C    0.236379
    61  N   -0.286462
    62  H    0.034377
    63  C    0.176727
    64  N   -0.304627
    65  H    0.036187
    66  C    0.106139
    67  N   -0.247248
    68  C    0.004448
    69  C    0.181911
    70  N   -0.296762
 Sum of Mulliken charges =  -0.00000

 Dipole moment (field-independent basis, Debye):
    X=              5.7234    Y=              5.8996    Z=              3.9785  Tot=              9.1318
 Quadrupole moment (field-independent basis, Debye-Ang):
   XX=           -142.4922   YY=           -227.2320   ZZ=           -258.0187
   XY=             13.5877   XZ=             11.7075   YZ=             -8.6495

 Normal termination of Gaussian 16 at Sat Jan 20 11:31:00 2018.
