 Gaussian 16, Revision A.03,
 Gaussian 16:  EM64L-G16RevA.03 25-Dec-2016

 ---------------------------------------
 #p wb97xd/cc-pvdz sp scf=(maxcycles=20)
 ---------------------------------------

 ------------------
 Base pair stacking
 ------------------
 Symbolic Z-matrix:
 Charge =  0 Multiplicity = 1

                         Standard orientation:
 ---------------------------------------------------------------------
 Center     Atomic      Atomic             Coordinates (Angstroms)
 Number     Number       Type             X           Y           Z
 ---------------------------------------------------------------------
      1          7           0       -5.797381   -1.622307    0.789903
      2          6           0       -7.135403   -1.139289    1.182836
      3          6           0       -3.620842   -1.876736    0.602224
      4          7           0       -4.195897   -2.835060   -0.219759
      5          6           0       -5.484171   -2.643414   -0.073800
      6          1           0       -6.258224   -3.223558   -0.577004
      7          7           0       -2.051592   -0.545240    1.754418
      8          6           0       -3.098576    0.095088    2.284872
      9          1           0       -2.850259    0.901545    2.973518
     10          7           0       -4.400126   -0.110248    2.093291
     11          6           0       -4.595443   -1.121676    1.231146
     12          6           0       -2.281314   -1.558175    0.890547
     13          7           0       -1.237493   -2.198580    0.359988
     14          1           0       -1.360548   -2.954444   -0.284015
     15          1           0       -0.297427   -1.944784    0.588008
     16          1           0       -7.645882   -1.882624    1.615348
     17          1           0       -7.040909   -0.381663    1.827964
     18          1           0       -7.629915   -0.825094    0.372445
     19          7           0       -4.214634    2.095366   -0.963006
     20          6           0       -2.843958    2.134202   -0.874778
     21          6           0       -5.133487    3.124416   -0.436248
     22          7           0        0.059484    3.736825    0.156410
     23          1           0        1.045230    3.576055    0.115078
     24          1           0       -0.244803    4.576148    0.607702
     25          7           0       -2.112139    3.111083   -0.296695
     26          6           0       -0.815777    2.866582   -0.369425
     27          7           0       -0.275398    1.751327   -0.962469
     28          1           0        0.727601    1.647043   -0.971595
     29          6           0       -1.009280    0.733417   -1.563420
     30          8           0       -0.423545   -0.231165   -2.070596
     31          6           0       -2.403604    0.982039   -1.493175
     32          7           0       -3.476242    0.234919   -1.960243
     33          6           0       -4.527159    0.932552   -1.623945
     34          1           0       -5.557511    0.643836   -1.834382
     35          1           0       -5.743847    2.713807    0.240276
     36          1           0       -4.602716    3.853228   -0.005704
     37          1           0       -5.674519    3.505411   -1.185201
     38          1           0        5.734453    1.405052   -0.119765
     39          1           0        5.834599    2.003229   -1.774093
     40          1           0        4.475023    2.466893   -0.750411
     41          1           0        4.872762   -2.642411   -2.573766
     42          6           0        4.353009   -1.731703   -2.275936
     43          8           0        2.191024   -2.600528   -2.720979
     44          6           0        2.924423   -1.686065   -2.345918
     45          1           0        1.360261   -0.417509   -1.981923
     46          7           0        2.367485   -0.487958   -1.946421
     47          8           0        2.451333    1.644582   -1.170251
     48          6           0        3.033397    0.627129   -1.502912
     49          1           0        6.117029   -0.643665   -1.775724
     50          6           0        5.030320   -0.660133   -1.847465
     51          6           0        5.162911    1.671617   -0.996322
     52          7           0        4.408475    0.505368   -1.463688
     53          1           0        5.141290    1.803561    4.084186
     54          1           0        3.859804    2.411410    3.277691
     55          1           0        5.365275    2.594180    2.674161
     56          1           0        2.171542   -3.423948   -0.265438
     57          1           0        3.844719   -3.328654    0.053158
     58          7           0        2.935273   -2.920165    0.138363
     59          6           0        2.750273   -1.755314    0.762929
     60          6           0        3.441535    0.181590    1.959720
     61          7           0        2.208977    0.706330    2.058986
     62          1           0        0.285180    0.265313    1.506616
     63          6           0        1.315175   -0.087071    1.472007
     64          7           0        1.498474   -1.254117    0.845930
     65          1           0        6.643990   -0.012552    2.358153
     66          6           0        5.599372   -0.183682    2.096576
     67          7           0        5.157020   -1.228242    1.440137
     68          6           0        3.790276   -1.009184    1.346550
     69          6           0        4.756670    1.981394    3.178402
     70          7           0        4.615317    0.710067    2.442358
 ---------------------------------------------------------------------

 SCF Done:  E(RwB97XD) =  -2048.75100983     A.U. after   15 cycles

 The electronic state is 1-A.
 Alpha  occ. eigenvalues --  -19.25795 -19.21935 -19.20687 -14.52260 -14.52204
 Alpha  occ. eigenvalues --  -14.48830 -14.48774 -14.47727 -14.47235 -14.46978
 Alpha  occ. eigenvalues --  -14.46699 -14.45228 -14.43863 -14.43788 -14.42228
 Alpha  occ. eigenvalues --  -14.42041 -14.41292 -14.41052 -14.40917 -14.40315
 Alpha  occ. eigenvalues --  -10.45366 -10.41280 -10.40171 -10.39366 -10.38301
 Alpha  occ. eigenvalues --  -10.37759 -10.37532 -10.36855 -10.35444 -10.35367
 Alpha  occ. eigenvalues --  -10.35264 -10.34369 -10.34027 -10.33794 -10.33383
 Alpha  occ. eigenvalues --  -10.33376 -10.33165 -10.32293 -10.31278 -10.30848
 Alpha  occ. eigenvalues --  -10.30802 -10.28488 -10.28134  -1.19355  -1.14926
 Alpha  occ. eigenvalues --   -1.13246  -1.13088  -1.11351  -1.10609  -1.09187
 Alpha  occ. eigenvalues --   -1.08756  -1.08609  -1.05076  -1.04263  -1.02440
 Alpha  occ. eigenvalues --   -1.00661  -1.00462  -0.99778  -0.98577  -0.96982
 Alpha  occ. eigenvalues --   -0.96592  -0.96315  -0.92736  -0.90863  -0.87312
 Alpha  occ. eigenvalues --   -0.85662  -0.84120  -0.84014  -0.83616  -0.82484
 Alpha  occ. eigenvalues --   -0.82410  -0.78705  -0.76626  -0.74665  -0.74396
 Alpha  occ. eigenvalues --   -0.73675  -0.73287  -0.72934  -0.71094  -0.69967
 Alpha  occ. eigenvalues --   -0.67418  -0.66425  -0.66343  -0.66321  -0.64420
 Alpha  occ. eigenvalues --   -0.63802  -0.63729  -0.62754  -0.62667  -0.61797
 Alpha  occ. eigenvalues --   -0.60766  -0.60377  -0.60048  -0.59305  -0.59102
 Alpha  occ. eigenvalues --   -0.58716  -0.58403  -0.56896  -0.56625  -0.56309
 Alpha  occ. eigenvalues --   -0.55928  -0.55486  -0.54989  -0.54624  -0.54277
 Alpha  occ. eigenvalues --   -0.53686  -0.53580  -0.53235  -0.53060  -0.52962
 Alpha  occ. eigenvalues --   -0.52460  -0.52430  -0.51905  -0.50894  -0.50324
 Alpha  occ. eigenvalues --   -0.50184  -0.49667  -0.49454  -0.49263  -0.48889
 Alpha  occ. eigenvalues --   -0.48834  -0.48408  -0.47926  -0.47542  -0.47413
 Alpha  occ. eigenvalues --   -0.47009  -0.45862  -0.44941  -0.44323  -0.43466
 Alpha  occ. eigenvalues --   -0.41152  -0.40358  -0.39378  -0.37517  -0.37316
 Alpha  occ. eigenvalues --   -0.37281  -0.37168  -0.37109  -0.36119  -0.34399
 Alpha  occ. eigenvalues --   -0.34178  -0.33913  -0.33464  -0.33423  -0.33225
 Alpha  occ. eigenvalues --   -0.32652  -0.32378  -0.31959  -0.31915  -0.30950
 Alpha  occ. eigenvalues --   -0.30505  -0.29256  -0.25743  -0.25451
 Alpha virt. eigenvalues --    0.03313   0.04345   0.07442   0.07804   0.08276
 Alpha virt. eigenvalues --    0.09073   0.09734   0.10607   0.11042   0.12030
 Alpha virt. eigenvalues --    0.13221   0.13738   0.14290   0.14487   0.14993

 Mulliken charges:
               1
     1  N   -0.309688
     2  C    0.179242
     3  C    0.064638
     4  N   -0.250489
     5  C    0.130393
     6  H    0.025652
     7  N   -0.293151
     8  C    0.135352
     9  H    0.011930
    10  N   -0.290477
    11  C    0.230452
    12  C    0.095569
    13  N   -0.045417
    14  H    0.112957
    15  H    0.087405
    16  H    0.027140
    17  H    0.033273
    18  H    0.020653
    19  N   -0.305031
    20  C    0.257474
    21  C    0.182156
    22  N   -0.120958
    23  H    0.116352
    24  H    0.117979
    25  N   -0.309699
    26  C    0.242754
    27  N   -0.147450
    28  H    0.121629
    29  C    0.188743
    30  O   -0.325258
    31  C   -0.018978
    32  N   -0.219060
    33  C    0.127177
    34  H    0.018812
    35  H    0.027484
    36  H    0.029232
    37  H    0.022322
    38  H    0.051538
    39  H    0.061289
    40  H    0.074129
    41  H    0.022686
    42  C   -0.111131
    43  O   -0.277942
    44  C    0.156194
    45  H    0.132621
    46  N   -0.110075
    47  O   -0.343708
    48  C    0.337548
    49  H    0.045159
    50  C    0.183014
    51  C    0.041866
    52  N   -0.278637
    53  H    0.034130
    54  H    0.041157
    55  H    0.021923
    56  H    0.127533
    57  H    0.116707
    58  N   -0.046703
    59  C    0.087058
    60  C    0.239095
    61  N   -0.270020
    62  H    0.033873
    63  C    0.159111
    64  N   -0.299835
    65  H    0.035058
    66  C    0.114923
    67  N   -0.255380
    68  C    0.029599
    69  C    0.182379
    70  N   -0.306276
 Sum of Mulliken charges =  -0.00000

 Dipole moment (field-independent basis, Debye):
    X=              6.3502    Y=              6.3519    Z=              3.7459  Tot=              9.7315
 Quadrupole moment (field-independent basis, Debye-Ang):
   XX=           -146.7413   YY=           -223.9772   ZZ=           -257.5891
   XY=              7.8899   XZ=              5.3057   YZ=             -0.1702

 Normal termination of Gaussian 16 at Sat Jan 20 09:42:01 2018.
