 Gaussian 16, Revision A.03,
 Gaussian 16:  EM64L-G16RevA.03 25-Dec-2016

 ---------------------------------------
 #p wb97xd/cc-pvdz sp scf=(maxcycles=20)
 ---------------------------------------

 ------------------
 Base pair stacking
 ------------------
 Symbolic Z-matrix:
 Charge =  0 Multiplicity = 1

                         Standard orientation:
 ---------------------------------------------------------------------
 Center     Atomic      Atomic             Coordinates (Angstroms)
 Number     Number       Type             X           Y           Z
 ---------------------------------------------------------------------
      1          7           0       -6.110009   -1.630838    0.397787
      2          6           0       -7.448891   -1.246333    0.885186
      3          6           0       -3.933541   -1.858067    0.177233
      4          7           0       -4.505738   -2.566783   -0.869202
      5          6           0       -5.794082   -2.401519   -0.694443
      6          1           0       -6.566265   -2.823416   -1.338414
      7          7           0       -2.368532   -0.886289    1.650112
      8          6           0       -3.416915   -0.388728    2.314130
      9          1           0       -3.170916    0.211622    3.188956
     10          7           0       -4.717435   -0.520824    2.060939
     11          6           0       -4.909881   -1.275717    0.966629
     12          6           0       -2.595372   -1.641736    0.553327
     13          7           0       -1.550152   -2.139291   -0.110840
     14          1           0       -1.671078   -2.703830   -0.928089
     15          1           0       -0.611122   -1.964811    0.185660
     16          1           0       -7.973116   -2.068565    1.107191
     17          1           0       -7.356520   -0.679988    1.703637
     18          1           0       -7.928091   -0.728914    0.176212
     19          7           0       -3.862824    2.434002   -0.749364
     20          6           0       -2.493078    2.424243   -0.640938
     21          6           0       -4.759915    3.439008   -0.144458
     22          7           0        0.438848    3.842322    0.565124
     23          1           0        1.420142    3.656718    0.521924
     24          1           0        0.151752    4.646918    1.085613
     25          7           0       -1.742599    3.323868    0.031008
     26          6           0       -0.452756    3.048488   -0.047061
     27          7           0        0.064601    1.974742   -0.730374
     28          1           0        1.064262    1.842011   -0.736260
     29          6           0       -0.688756    1.036376   -1.428778
     30          8           0       -0.123077    0.103675   -2.012572
     31          6           0       -2.076360    1.318963   -1.354038
     32          7           0       -3.162622    0.648335   -1.899183
     33          6           0       -4.198244    1.344198   -1.515168
     34          1           0       -5.233100    1.105952   -1.763334
     35          1           0       -5.391796    2.988254    0.485097
     36          1           0       -4.215193    4.110695    0.355917
     37          1           0       -5.278561    3.900829   -0.863162
     38          1           0        6.048824    1.377180    0.152976
     39          1           0        6.190820    2.116571   -1.440066
     40          1           0        4.829699    2.527635   -0.396156
     41          1           0        5.109601   -2.409236   -2.662610
     42          6           0        4.611494   -1.513553   -2.291286
     43          8           0        2.432645   -2.275040   -2.838930
     44          6           0        3.185996   -1.419590   -2.374731
     45          1           0        1.653185   -0.142571   -1.918637
     46          7           0        2.657350   -0.245690   -1.876995
     47          8           0        2.790030    1.806136   -0.912838
     48          6           0        3.347902    0.805418   -1.327579
     49          1           0        6.397965   -0.526931   -1.674118
     50          6           0        5.312434   -0.504778   -1.760587
     51          6           0        5.498342    1.737290   -0.703392
     52          7           0        4.718221    0.639978   -1.282232
     53          1           0        4.811715    0.692645    4.588363
     54          1           0        3.548526    1.503494    3.948852
     55          1           0        5.064580    1.814164    3.430058
     56          1           0        1.855511   -3.209849   -0.988098
     57          1           0        3.524606   -3.221573   -0.635837
     58          7           0        2.618088   -2.836238   -0.459865
     59          6           0        2.435360   -1.867229    0.439470
     60          6           0        3.127865   -0.309814    2.099769
     61          7           0        1.899224    0.188654    2.315208
     62          1           0       -0.020389   -0.070752    1.645580
     63          6           0        1.006466   -0.416394    1.534311
     64          7           0        1.187503   -1.387126    0.632928
     65          1           0        6.321926   -0.642255    2.473434
     66          6           0        5.279682   -0.726843    2.164382
     67          7           0        4.836828   -1.563006    1.257517
     68          6           0        3.473877   -1.308984    1.206770
     69          6           0        4.442451    1.101113    3.753619
     70          7           0        4.299500    0.062036    2.715408
 ---------------------------------------------------------------------

 SCF Done:  E(RwB97XD) =  -2048.73393498     A.U. after   15 cycles

 The electronic state is 1-A.
 Alpha  occ. eigenvalues --  -19.26117 -19.21942 -19.20861 -14.52628 -14.51711
 Alpha  occ. eigenvalues --  -14.48874 -14.48796 -14.48072 -14.47156 -14.46872
 Alpha  occ. eigenvalues --  -14.46139 -14.44758 -14.43215 -14.43076 -14.42182
 Alpha  occ. eigenvalues --  -14.41981 -14.41296 -14.40964 -14.40904 -14.40146
 Alpha  occ. eigenvalues --  -10.45729 -10.41421 -10.40554 -10.38637 -10.38443
 Alpha  occ. eigenvalues --  -10.37954 -10.37250 -10.36297 -10.35539 -10.35286
 Alpha  occ. eigenvalues --  -10.34841 -10.34475 -10.34010 -10.33432 -10.33395
 Alpha  occ. eigenvalues --  -10.33300 -10.33047 -10.31674 -10.31184 -10.31052
 Alpha  occ. eigenvalues --  -10.30892 -10.28415 -10.28243  -1.19684  -1.14404
 Alpha  occ. eigenvalues --   -1.13644  -1.13395  -1.11325  -1.10723  -1.09531
 Alpha  occ. eigenvalues --   -1.08767  -1.08058  -1.04933  -1.03613  -1.02834
 Alpha  occ. eigenvalues --   -1.00307  -1.00131  -0.99945  -0.98710  -0.96910
 Alpha  occ. eigenvalues --   -0.96691  -0.95688  -0.92572  -0.91182  -0.86780
 Alpha  occ. eigenvalues --   -0.85178  -0.84224  -0.83949  -0.83915  -0.82575
 Alpha  occ. eigenvalues --   -0.82336  -0.79084  -0.76059  -0.74775  -0.73865
 Alpha  occ. eigenvalues --   -0.73817  -0.73616  -0.72832  -0.70989  -0.69407
 Alpha  occ. eigenvalues --   -0.67563  -0.66780  -0.66221  -0.65789  -0.64667
 Alpha  occ. eigenvalues --   -0.63953  -0.63227  -0.62831  -0.62605  -0.61918
 Alpha  occ. eigenvalues --   -0.60538  -0.60176  -0.59627  -0.59511  -0.58672
 Alpha  occ. eigenvalues --   -0.58564  -0.58560  -0.56796  -0.56496  -0.56417
 Alpha  occ. eigenvalues --   -0.56199  -0.55284  -0.55072  -0.54673  -0.54443
 Alpha  occ. eigenvalues --   -0.53848  -0.53622  -0.53107  -0.52799  -0.52716
 Alpha  occ. eigenvalues --   -0.52630  -0.51943  -0.51800  -0.50838  -0.50355
 Alpha  occ. eigenvalues --   -0.50202  -0.49974  -0.49705  -0.49281  -0.49092
 Alpha  occ. eigenvalues --   -0.48640  -0.48519  -0.47772  -0.47652  -0.47404
 Alpha  occ. eigenvalues --   -0.46918  -0.45760  -0.44964  -0.44054  -0.42961
 Alpha  occ. eigenvalues --   -0.41090  -0.39832  -0.39665  -0.37431  -0.37405
 Alpha  occ. eigenvalues --   -0.37149  -0.37075  -0.36587  -0.35820  -0.34375
 Alpha  occ. eigenvalues --   -0.33965  -0.33706  -0.33470  -0.33394  -0.33183
 Alpha  occ. eigenvalues --   -0.32734  -0.32503  -0.32095  -0.32041  -0.30880
 Alpha  occ. eigenvalues --   -0.30347  -0.28412  -0.25650  -0.25553
 Alpha virt. eigenvalues --    0.02828   0.05034   0.07743   0.08034   0.08271
 Alpha virt. eigenvalues --    0.08883   0.09609   0.10679   0.11135   0.12147
 Alpha virt. eigenvalues --    0.13334   0.13842   0.14417   0.14613   0.15135

 Mulliken charges:
               1
     1  N   -0.310616
     2  C    0.180442
     3  C    0.055689
     4  N   -0.249525
     5  C    0.126228
     6  H    0.025244
     7  N   -0.292412
     8  C    0.133984
     9  H    0.012264
    10  N   -0.291897
    11  C    0.230587
    12  C    0.098123
    13  N   -0.042478
    14  H    0.112926
    15  H    0.092693
    16  H    0.026741
    17  H    0.033653
    18  H    0.021002
    19  N   -0.309287
    20  C    0.257728
    21  C    0.180768
    22  N   -0.122600
    23  H    0.115451
    24  H    0.118659
    25  N   -0.310494
    26  C    0.246751
    27  N   -0.149138
    28  H    0.120968
    29  C    0.189665
    30  O   -0.326886
    31  C   -0.017558
    32  N   -0.220938
    33  C    0.131751
    34  H    0.022428
    35  H    0.030494
    36  H    0.029156
    37  H    0.023126
    38  H    0.053244
    39  H    0.061515
    40  H    0.074223
    41  H    0.026620
    42  C   -0.105200
    43  O   -0.291572
    44  C    0.134788
    45  H    0.137347
    46  N   -0.109167
    47  O   -0.345115
    48  C    0.346247
    49  H    0.046230
    50  C    0.197793
    51  C    0.042767
    52  N   -0.281620
    53  H    0.032736
    54  H    0.041615
    55  H    0.021886
    56  H    0.131447
    57  H    0.112425
    58  N   -0.031042
    59  C    0.091926
    60  C    0.249040
    61  N   -0.276358
    62  H    0.033766
    63  C    0.162154
    64  N   -0.304091
    65  H    0.031795
    66  C    0.118612
    67  N   -0.256892
    68  C    0.008553
    69  C    0.181369
    70  N   -0.309733
 Sum of Mulliken charges =  -0.00000

 Dipole moment (field-independent basis, Debye):
    X=              6.5853    Y=              6.0952    Z=              3.9068  Tot=              9.7868
 Quadrupole moment (field-independent basis, Debye-Ang):
   XX=           -144.9392   YY=           -225.6805   ZZ=           -254.0102
   XY=              5.9151   XZ=              9.8748   YZ=              4.8900

 Normal termination of Gaussian 16 at Sat Jan 20 19:06:33 2018.
