 Gaussian 16, Revision A.03,
 Gaussian 16:  EM64L-G16RevA.03 25-Dec-2016

 ---------------------------------------
 #p wb97xd/cc-pvdz sp scf=(maxcycles=20)
 ---------------------------------------

 ------------------
 Base pair stacking
 ------------------
 Symbolic Z-matrix:
 Charge =  0 Multiplicity = 1

                         Standard orientation:
 ---------------------------------------------------------------------
 Center     Atomic      Atomic             Coordinates (Angstroms)
 Number     Number       Type             X           Y           Z
 ---------------------------------------------------------------------
      1          7           0       -6.379512   -1.346938    0.497836
      2          6           0       -7.714562   -0.792008    0.793976
      3          6           0       -4.208686   -1.695296    0.439008
      4          7           0       -4.780528   -2.673278   -0.361793
      5          6           0       -6.065476   -2.424259   -0.294306
      6          1           0       -6.836377   -3.000087   -0.807213
      7          7           0       -2.646092   -0.365818    1.602497
      8          6           0       -3.691182    0.342169    2.043084
      9          1           0       -3.444917    1.174142    2.701433
     10          7           0       -4.988717    0.177499    1.793710
     11          6           0       -5.181803   -0.870356    0.975703
     12          6           0       -2.873477   -1.413941    0.781025
     13          7           0       -1.831534   -2.121880    0.340172
     14          1           0       -1.952980   -2.905844   -0.269635
     15          1           0       -0.894538   -1.892873    0.604254
     16          1           0       -8.276781   -1.490713    1.236591
     17          1           0       -7.621593   -0.005110    1.403304
     18          1           0       -8.153771   -0.502764   -0.056567
     19          7           0       -3.569661    2.197927   -1.223077
     20          6           0       -2.204818    2.188231   -1.064536
     21          6           0       -4.470580    3.288600   -0.799429
     22          7           0        0.706512    3.730015    0.034936
     23          1           0        1.685552    3.529136    0.054180
     24          1           0        0.414791    4.603492    0.425633
     25          7           0       -1.463385    3.165589   -0.499641
     26          6           0       -0.176275    2.867436   -0.490940
     27          7           0        0.346770    1.701866   -0.996287
     28          1           0        1.343735    1.558409   -0.946932
     29          6           0       -0.397255    0.682435   -1.582000
     30          8           0        0.172939   -0.329950   -2.007068
     31          6           0       -1.781821    0.988363   -1.598558
     32          7           0       -2.859438    0.259438   -2.082632
     33          6           0       -3.896207    1.014346   -1.838832
     34          1           0       -4.925639    0.754953   -2.088357
     35          1           0       -5.131049    2.938852   -0.135912
     36          1           0       -3.932566    4.018319   -0.379520
     37          1           0       -4.956557    3.649599   -1.594616
     38          1           0        6.286454    1.168401    0.180090
     39          1           0        6.495302    1.672687   -1.495240
     40          1           0        5.105885    2.242961   -0.570218
     41          1           0        5.383278   -2.968334   -2.104255
     42          6           0        4.887319   -2.023499   -1.881684
     43          8           0        2.716535   -2.830420   -2.395175
     44          6           0        3.467264   -1.926298   -2.029450
     45          1           0        1.940656   -0.580324   -1.814617
     46          7           0        2.940979   -0.687788   -1.722255
     47          8           0        3.073751    1.478445   -1.053670
     48          6           0        3.629209    0.422810   -1.302169
     49          1           0        6.667299   -0.979446   -1.345527
     50          6           0        5.585895   -0.957570   -1.473748
     51          6           0        5.771760    1.409554   -0.738073
     52          7           0        4.994277    0.250067   -1.183999
     53          1           0        4.510419    1.823744    4.185621
     54          1           0        3.297922    2.436728    3.282171
     55          1           0        4.838402    2.528330    2.750562
     56          1           0        1.551056   -3.510335   -0.039941
     57          1           0        3.208397   -3.463063    0.361445
     58          7           0        2.313543   -3.015623    0.377226
     59          6           0        2.145570   -1.812661    0.930265
     60          6           0        2.854940    0.157345    2.060564
     61          7           0        1.641783    0.734069    2.067272
     62          1           0       -0.268107    0.339026    1.437301
     63          6           0        0.746800   -0.054387    1.475471
     64          7           0        0.913062   -1.259554    0.920948
     65          1           0        6.022182   -0.139233    2.637436
     66          6           0        4.986003   -0.283492    2.330095
     67          7           0        4.534598   -1.343792    1.705863
     68          6           0        3.184652   -1.077216    1.528895
     69          6           0        4.180039    1.967533    3.252786
     70          7           0        4.023614    0.665019    2.576787
 ---------------------------------------------------------------------

 SCF Done:  E(RwB97XD) =  -2048.75092699     A.U. after   15 cycles

 The electronic state is 1-A.
 Alpha  occ. eigenvalues --  -19.25974 -19.22042 -19.20695 -14.52500 -14.51714
 Alpha  occ. eigenvalues --  -14.49152 -14.48673 -14.47924 -14.46949 -14.46657
 Alpha  occ. eigenvalues --  -14.46551 -14.44716 -14.43247 -14.43102 -14.42360
 Alpha  occ. eigenvalues --  -14.42009 -14.41703 -14.41316 -14.40788 -14.40485
 Alpha  occ. eigenvalues --  -10.45583 -10.41214 -10.40208 -10.38739 -10.38253
 Alpha  occ. eigenvalues --  -10.37744 -10.37237 -10.36279 -10.35668 -10.35582
 Alpha  occ. eigenvalues --  -10.34860 -10.34383 -10.34289 -10.33680 -10.33499
 Alpha  occ. eigenvalues --  -10.33406 -10.33271 -10.31648 -10.31419 -10.30940
 Alpha  occ. eigenvalues --  -10.30578 -10.28808 -10.28059  -1.19539  -1.14376
 Alpha  occ. eigenvalues --   -1.13224  -1.13179  -1.11699  -1.10540  -1.09369
 Alpha  occ. eigenvalues --   -1.08576  -1.08091  -1.05292  -1.03621  -1.02609
 Alpha  occ. eigenvalues --   -1.00690  -1.00129  -0.99741  -0.98530  -0.97273
 Alpha  occ. eigenvalues --   -0.96485  -0.95688  -0.92935  -0.91000  -0.86792
 Alpha  occ. eigenvalues --   -0.85221  -0.84293  -0.84021  -0.83843  -0.82662
 Alpha  occ. eigenvalues --   -0.82332  -0.78885  -0.76055  -0.74580  -0.73834
 Alpha  occ. eigenvalues --   -0.73645  -0.73426  -0.73186  -0.71356  -0.69410
 Alpha  occ. eigenvalues --   -0.67367  -0.66604  -0.66576  -0.65749  -0.64494
 Alpha  occ. eigenvalues --   -0.63744  -0.63278  -0.62931  -0.62660  -0.61723
 Alpha  occ. eigenvalues --   -0.60488  -0.60464  -0.59557  -0.59501  -0.58629
 Alpha  occ. eigenvalues --   -0.58564  -0.58357  -0.56928  -0.56812  -0.56383
 Alpha  occ. eigenvalues --   -0.56031  -0.55630  -0.54679  -0.54577  -0.54415
 Alpha  occ. eigenvalues --   -0.53635  -0.53537  -0.52895  -0.52787  -0.52677
 Alpha  occ. eigenvalues --   -0.52565  -0.52097  -0.51940  -0.51151  -0.50519
 Alpha  occ. eigenvalues --   -0.50145  -0.49551  -0.49468  -0.49271  -0.48836
 Alpha  occ. eigenvalues --   -0.48803  -0.48325  -0.47809  -0.47535  -0.47427
 Alpha  occ. eigenvalues --   -0.47258  -0.45493  -0.45272  -0.43928  -0.43556
 Alpha  occ. eigenvalues --   -0.41497  -0.39845  -0.39524  -0.37478  -0.37257
 Alpha  occ. eigenvalues --   -0.37230  -0.36965  -0.36628  -0.35846  -0.34174
 Alpha  occ. eigenvalues --   -0.34037  -0.33735  -0.33660  -0.33360  -0.33228
 Alpha  occ. eigenvalues --   -0.32696  -0.32267  -0.31958  -0.31871  -0.31276
 Alpha  occ. eigenvalues --   -0.30696  -0.28705  -0.26075  -0.25342
 Alpha virt. eigenvalues --    0.02990   0.04949   0.07676   0.08063   0.08356
 Alpha virt. eigenvalues --    0.08976   0.09765   0.10681   0.10776   0.11796
 Alpha virt. eigenvalues --    0.13186   0.13792   0.14533   0.14646   0.15248

 Mulliken charges:
               1
     1  N   -0.310562
     2  C    0.180140
     3  C    0.054140
     4  N   -0.252800
     5  C    0.128420
     6  H    0.026853
     7  N   -0.287201
     8  C    0.133197
     9  H    0.014042
    10  N   -0.291672
    11  C    0.228672
    12  C    0.101515
    13  N   -0.043048
    14  H    0.110956
    15  H    0.091516
    16  H    0.027411
    17  H    0.033865
    18  H    0.023162
    19  N   -0.305685
    20  C    0.256996
    21  C    0.180578
    22  N   -0.117593
    23  H    0.113447
    24  H    0.117178
    25  N   -0.308315
    26  C    0.240361
    27  N   -0.142941
    28  H    0.119990
    29  C    0.173141
    30  O   -0.324684
    31  C   -0.007892
    32  N   -0.223845
    33  C    0.128675
    34  H    0.023494
    35  H    0.029214
    36  H    0.027833
    37  H    0.021809
    38  H    0.048420
    39  H    0.062643
    40  H    0.073923
    41  H    0.026675
    42  C   -0.102134
    43  O   -0.279064
    44  C    0.158632
    45  H    0.136320
    46  N   -0.123130
    47  O   -0.345349
    48  C    0.347074
    49  H    0.045508
    50  C    0.187220
    51  C    0.041242
    52  N   -0.281461
    53  H    0.032977
    54  H    0.040096
    55  H    0.020320
    56  H    0.125802
    57  H    0.116550
    58  N   -0.039629
    59  C    0.101984
    60  C    0.245419
    61  N   -0.275594
    62  H    0.035181
    63  C    0.161055
    64  N   -0.303335
    65  H    0.032437
    66  C    0.116136
    67  N   -0.250732
    68  C    0.000201
    69  C    0.181233
    70  N   -0.306988
 Sum of Mulliken charges =  -0.00000

 Dipole moment (field-independent basis, Debye):
    X=              6.3172    Y=              6.0801    Z=              3.4898  Tot=              9.4368
 Quadrupole moment (field-independent basis, Debye-Ang):
   XX=           -143.8516   YY=           -224.6048   ZZ=           -256.3246
   XY=              9.0260   XZ=             11.7708   YZ=             -1.2388

 Normal termination of Gaussian 16 at Sat Jan 20 11:06:49 2018.
