 Gaussian 16, Revision A.03,
 Gaussian 16:  EM64L-G16RevA.03 25-Dec-2016

 ---------------------------------------
 #p wb97xd/cc-pvdz sp scf=(maxcycles=20)
 ---------------------------------------

 ------------------
 Base pair stacking
 ------------------
 Symbolic Z-matrix:
 Charge =  0 Multiplicity = 1

                         Standard orientation:
 ---------------------------------------------------------------------
 Center     Atomic      Atomic             Coordinates (Angstroms)
 Number     Number       Type             X           Y           Z
 ---------------------------------------------------------------------
      1          7           0       -6.907961   -1.081908    0.272508
      2          6           0       -8.230787   -0.441744    0.407889
      3          6           0       -4.752391   -1.506126    0.376734
      4          7           0       -5.329126   -2.585271   -0.277131
      5          6           0       -6.604691   -2.286504   -0.313749
      6          1           0       -7.376010   -2.914623   -0.760392
      7          7           0       -3.187600   -0.052281    1.377102
      8          6           0       -4.220847    0.753402    1.643280
      9          1           0       -3.969040    1.675483    2.165434
     10          7           0       -5.512376    0.591852    1.362626
     11          6           0       -5.713089   -0.571440    0.721627
     12          6           0       -3.422430   -1.215283    0.731073
     13          7           0       -2.392323   -2.020870    0.464468
     14          1           0       -2.519616   -2.891589   -0.011841
     15          1           0       -1.458751   -1.781649    0.731600
     16          1           0       -8.838779   -1.037544    0.932817
     17          1           0       -8.131786    0.432706    0.881871
     18          1           0       -8.621930   -0.284991   -0.498987
     19          7           0       -2.969175    2.084290   -1.486516
     20          6           0       -1.613602    2.058423   -1.263373
     21          6           0       -3.860295    3.225811   -1.197471
     22          7           0        1.283242    3.623572   -0.158656
     23          1           0        2.254971    3.403916   -0.076625
     24          1           0        0.996448    4.532797    0.144322
     25          7           0       -0.873877    3.063393   -0.746733
     26          6           0        0.403498    2.739282   -0.652614
     27          7           0        0.919063    1.524479   -1.034652
     28          1           0        1.908803    1.364151   -0.926543
     29          6           0        0.176625    0.475907   -1.568644
     30          8           0        0.739534   -0.580595   -1.881195
     31          6           0       -1.197532    0.809204   -1.675857
     32          7           0       -2.270312    0.065766   -2.148439
     33          6           0       -3.297507    0.860645   -2.017122
     34          1           0       -4.320852    0.603583   -2.292739
     35          1           0       -4.558841    2.947170   -0.539286
     36          1           0       -3.323447    3.976320   -0.814329
     37          1           0       -4.300399    3.529381   -2.041846
     38          1           0        6.783848    0.963174    0.461199
     39          1           0        7.081156    1.320818   -1.238309
     40          1           0        5.666221    1.996404   -0.430269
     41          1           0        5.880057   -3.329781   -1.513693
     42          6           0        5.398742   -2.359135   -1.393631
     43          8           0        3.233608   -3.159128   -1.940742
     44          6           0        3.989779   -2.243992   -1.615883
     45          1           0        2.489772   -0.852107   -1.585380
     46          7           0        3.481815   -0.973040   -1.437280
     47          8           0        3.639273    1.238182   -0.944420
     48          6           0        4.178361    0.153690   -1.078324
     49          1           0        7.178609   -1.312574   -0.862039
     50          6           0        6.105034   -1.278155   -1.042595
     51          6           0        6.317584    1.137691   -0.497033
     52          7           0        5.531832   -0.037995   -0.881894
     53          1           0        3.936800    2.303798    3.901802
     54          1           0        2.788957    2.795986    2.851901
     55          1           0        4.352800    2.746648    2.387131
     56          1           0        0.944490   -3.563460    0.483181
     57          1           0        2.584102   -3.503883    0.950342
     58          7           0        1.708141   -3.031051    0.848588
     59          6           0        1.565785   -1.747547    1.185507
     60          6           0        2.306018    0.359796    2.005825
     61          7           0        1.117880    0.968904    1.858374
     62          1           0       -0.778297    0.536600    1.211663
     63          6           0        0.217432    0.122123    1.363361
     64          7           0        0.358059   -1.163761    1.025262
     65          1           0        5.431752    0.060554    2.775494
     66          6           0        4.404392   -0.099184    2.446922
     67          7           0        3.937155   -1.233774    1.986416
     68          6           0        2.607669   -0.956568    1.702974
     69          6           0        3.651886    2.299871    2.943258
     70          7           0        3.471539    0.908271    2.486163
 ---------------------------------------------------------------------

 SCF Done:  E(RwB97XD) =  -2048.74991270     A.U. after   15 cycles

 The electronic state is 1-A.
 Alpha  occ. eigenvalues --  -19.26054 -19.22093 -19.20628 -14.52500 -14.51347
 Alpha  occ. eigenvalues --  -14.49546 -14.48562 -14.47910 -14.46805 -14.46724
 Alpha  occ. eigenvalues --  -14.46294 -14.44342 -14.42771 -14.42767 -14.42645
 Alpha  occ. eigenvalues --  -14.42185 -14.42028 -14.41735 -14.40828 -14.40729
 Alpha  occ. eigenvalues --  -10.45604 -10.41177 -10.40165 -10.38344 -10.38225
 Alpha  occ. eigenvalues --  -10.37679 -10.36955 -10.36064 -10.35876 -10.35749
 Alpha  occ. eigenvalues --  -10.34829 -10.34432 -10.34293 -10.34153 -10.33814
 Alpha  occ. eigenvalues --  -10.33344 -10.33159 -10.31630 -10.31276 -10.30981
 Alpha  occ. eigenvalues --  -10.30405 -10.29304 -10.28070  -1.19576  -1.14016
 Alpha  occ. eigenvalues --   -1.13204  -1.13109  -1.12134  -1.10483  -1.09393
 Alpha  occ. eigenvalues --   -1.08551  -1.07693  -1.05682  -1.03240  -1.02565
 Alpha  occ. eigenvalues --   -1.01081  -0.99821  -0.99729  -0.98493  -0.97669
 Alpha  occ. eigenvalues --   -0.96409  -0.95314  -0.93307  -0.91004  -0.86470
 Alpha  occ. eigenvalues --   -0.84954  -0.84677  -0.84005  -0.83898  -0.83019
 Alpha  occ. eigenvalues --   -0.82234  -0.78884  -0.75723  -0.74534  -0.73657
 Alpha  occ. eigenvalues --   -0.73572  -0.73439  -0.73408  -0.71775  -0.69087
 Alpha  occ. eigenvalues --   -0.67353  -0.66970  -0.66590  -0.65413  -0.64477
 Alpha  occ. eigenvalues --   -0.63697  -0.63407  -0.62887  -0.62648  -0.61702
 Alpha  occ. eigenvalues --   -0.60803  -0.60195  -0.59531  -0.59274  -0.58593
 Alpha  occ. eigenvalues --   -0.58368  -0.58342  -0.57160  -0.57115  -0.56450
 Alpha  occ. eigenvalues --   -0.56063  -0.55933  -0.54574  -0.54420  -0.54308
 Alpha  occ. eigenvalues --   -0.53574  -0.53569  -0.52857  -0.52724  -0.52702
 Alpha  occ. eigenvalues --   -0.52365  -0.52220  -0.51638  -0.51480  -0.50846
 Alpha  occ. eigenvalues --   -0.50088  -0.49725  -0.49502  -0.48869  -0.48714
 Alpha  occ. eigenvalues --   -0.48587  -0.48219  -0.47801  -0.47641  -0.47629
 Alpha  occ. eigenvalues --   -0.47388  -0.45650  -0.45279  -0.43994  -0.43308
 Alpha  occ. eigenvalues --   -0.41903  -0.39614  -0.39536  -0.37909  -0.37255
 Alpha  occ. eigenvalues --   -0.37178  -0.36802  -0.36243  -0.35524  -0.34406
 Alpha  occ. eigenvalues --   -0.34244  -0.34209  -0.33286  -0.33199  -0.32854
 Alpha  occ. eigenvalues --   -0.32653  -0.32231  -0.31961  -0.31850  -0.31645
 Alpha  occ. eigenvalues --   -0.31044  -0.28337  -0.26499  -0.25397
 Alpha virt. eigenvalues --    0.03152   0.05061   0.07266   0.08319   0.08601
 Alpha virt. eigenvalues --    0.09121   0.09696   0.10225   0.10739   0.11795
 Alpha virt. eigenvalues --    0.12898   0.13430   0.14518   0.14661   0.15491

 Mulliken charges:
               1
     1  N   -0.310792
     2  C    0.180460
     3  C    0.040864
     4  N   -0.255470
     5  C    0.131240
     6  H    0.028700
     7  N   -0.279151
     8  C    0.129153
     9  H    0.016650
    10  N   -0.291370
    11  C    0.229945
    12  C    0.104110
    13  N   -0.042586
    14  H    0.108567
    15  H    0.088739
    16  H    0.027806
    17  H    0.034965
    18  H    0.025466
    19  N   -0.302830
    20  C    0.247324
    21  C    0.180704
    22  N   -0.113728
    23  H    0.110799
    24  H    0.116564
    25  N   -0.301552
    26  C    0.235034
    27  N   -0.125066
    28  H    0.117733
    29  C    0.149565
    30  O   -0.322408
    31  C    0.003340
    32  N   -0.224945
    33  C    0.122991
    34  H    0.027752
    35  H    0.028368
    36  H    0.026612
    37  H    0.022031
    38  H    0.051031
    39  H    0.064192
    40  H    0.074000
    41  H    0.029614
    42  C   -0.097154
    43  O   -0.275285
    44  C    0.173193
    45  H    0.137074
    46  N   -0.130208
    47  O   -0.349836
    48  C    0.349859
    49  H    0.046129
    50  C    0.177303
    51  C    0.037290
    52  N   -0.287401
    53  H    0.032687
    54  H    0.037040
    55  H    0.019025
    56  H    0.120928
    57  H    0.119217
    58  N   -0.048103
    59  C    0.115618
    60  C    0.235826
    61  N   -0.270494
    62  H    0.043068
    63  C    0.159109
    64  N   -0.301568
    65  H    0.027666
    66  C    0.118240
    67  N   -0.253040
    68  C    0.006250
    69  C    0.178171
    70  N   -0.305029
 Sum of Mulliken charges =  -0.00000

 Dipole moment (field-independent basis, Debye):
    X=              5.9992    Y=              5.9711    Z=              3.3418  Tot=              9.1002
 Quadrupole moment (field-independent basis, Debye-Ang):
   XX=           -140.3396   YY=           -225.9037   ZZ=           -255.0773
   XY=             12.6777   XZ=             16.8550   YZ=             -4.4479

 Normal termination of Gaussian 16 at Sun Jan 21 01:54:18 2018.
