 Gaussian 16, Revision A.03,
 Gaussian 16:  EM64L-G16RevA.03 25-Dec-2016

 ---------------------------------------
 #p wb97xd/cc-pvdz sp scf=(maxcycles=20)
 ---------------------------------------

 ------------------
 Base pair stacking
 ------------------
 Symbolic Z-matrix:
 Charge =  0 Multiplicity = 1

                         Standard orientation:
 ---------------------------------------------------------------------
 Center     Atomic      Atomic             Coordinates (Angstroms)
 Number     Number       Type             X           Y           Z
 ---------------------------------------------------------------------
      1          7           0        4.861200   -1.849756   -1.370029
      2          6           0        6.187409   -1.426122   -1.859636
      3          6           0        2.697562   -1.987128   -0.999790
      4          7           0        3.281425   -3.015894   -0.274890
      5          6           0        4.561567   -2.891958   -0.526952
      6          1           0        5.339015   -3.539577   -0.120623
      7          7           0        1.119586   -0.512858   -1.948177
      8          6           0        2.154192    0.091129   -2.541780
      9          1           0        1.897401    0.943138   -3.169797
     10          7           0        3.452283   -0.197984   -2.476403
     11          6           0        3.658754   -1.259774   -1.679911
     12          6           0        1.360318   -1.578210   -1.153109
     13          7           0        0.328855   -2.182453   -0.559689
     14          1           0        0.460355   -2.974627    0.037302
     15          1           0       -0.609968   -1.864084   -0.691530
     16          1           0        6.611646   -2.175694   -2.367920
     17          1           0        6.084319   -0.633783   -2.460222
     18          1           0        6.768702   -1.180789   -1.083813
     19          7           0        5.157554    1.734185    0.667786
     20          6           0        3.789398    1.856217    0.704191
     21          6           0        6.089063    2.732977    0.106189
     22          7           0        0.912001    3.671878    0.007240
     23          1           0       -0.074489    3.566372    0.129496
     24          1           0        1.227274    4.513236   -0.432563
     25          7           0        3.071946    2.900669    0.236815
     26          6           0        1.774149    2.728057    0.414440
     27          7           0        1.219378    1.618252    1.004414
     28          1           0        0.216420    1.571629    1.098621
     29          6           0        1.938334    0.531671    1.492585
     30          8           0        1.340325   -0.421096    2.007704
     31          6           0        3.333999    0.702620    1.308857
     32          7           0        4.394908   -0.126962    1.645280
     33          6           0        5.453781    0.524483    1.247009
     34          1           0        6.478708    0.166951    1.351775
     35          1           0        6.612012    2.321310   -0.639366
     36          1           0        5.568983    3.511287   -0.243119
     37          1           0        6.715419    3.045223    0.819632
     38          1           0       -4.850746    1.660453    0.688029
     39          1           0       -4.770114    2.182135    2.369099
     40          1           0       -3.478313    2.615951    1.249088
     41          1           0       -4.031162   -2.544645    2.877076
     42          6           0       -3.483947   -1.652001    2.573817
     43          8           0       -1.349295   -2.664659    2.785667
     44          6           0       -2.054594   -1.692262    2.517744
     45          1           0       -0.452551   -0.499760    2.070832
     46          7           0       -1.461485   -0.510214    2.122476
     47          8           0       -1.480482    1.658879    1.450260
     48          6           0       -2.093207    0.661677    1.789113
     49          1           0       -5.214151   -0.441018    2.281013
     50          6           0       -4.128413   -0.523571    2.254547
     51          6           0       -4.190071    1.850616    1.520739
     52          7           0       -3.471397    0.621445    1.867704
     53          1           0       -6.089359    2.357371   -3.521475
     54          1           0       -4.707766    2.850335   -2.807118
     55          1           0       -6.141136    3.089979   -2.064072
     56          1           0       -3.082289   -3.238261    0.314137
     57          1           0       -4.767692   -3.031267    0.150812
     58          7           0       -3.845576   -2.672221    0.002479
     59          6           0       -3.643839   -1.490940   -0.584940
     60          6           0       -4.315314    0.538575   -1.629899
     61          7           0       -3.065962    0.995598   -1.816055
     62          1           0       -1.132442    0.418026   -1.457529
     63          6           0       -2.175349    0.124347   -1.346331
     64          7           0       -2.375399   -1.059294   -0.757655
     65          1           0       -7.546100    0.549006   -1.748543
     66          6           0       -6.495304    0.305397   -1.589064
     67          7           0       -6.063069   -0.793646   -1.020780
     68          6           0       -4.682451   -0.658561   -1.040308
     69          6           0       -5.617481    2.468412   -2.646830
     70          7           0       -5.491632    1.156717   -1.982279
 ---------------------------------------------------------------------

 SCF Done:  E(RwB97XD) =  -2048.74698801     A.U. after   15 cycles

 The electronic state is 1-A.
 Alpha  occ. eigenvalues --  -19.25481 -19.22042 -19.20724 -14.52597 -14.52011
 Alpha  occ. eigenvalues --  -14.49173 -14.48368 -14.47943 -14.47490 -14.46957
 Alpha  occ. eigenvalues --  -14.46782 -14.45528 -14.44496 -14.44473 -14.42294
 Alpha  occ. eigenvalues --  -14.42138 -14.41375 -14.40923 -14.40803 -14.40400
 Alpha  occ. eigenvalues --  -10.45062 -10.41367 -10.39998 -10.39962 -10.38378
 Alpha  occ. eigenvalues --  -10.38074 -10.37354 -10.37111 -10.35986 -10.35420
 Alpha  occ. eigenvalues --  -10.34793 -10.34636 -10.33966 -10.33813 -10.33613
 Alpha  occ. eigenvalues --  -10.33152 -10.33091 -10.32834 -10.31278 -10.30909
 Alpha  occ. eigenvalues --  -10.30763 -10.28407 -10.28307  -1.19054  -1.15347
 Alpha  occ. eigenvalues --   -1.13356  -1.12970  -1.10966  -1.10877  -1.09477
 Alpha  occ. eigenvalues --   -1.08882  -1.08679  -1.05033  -1.04900  -1.02181
 Alpha  occ. eigenvalues --   -1.01057  -1.00383  -0.99866  -0.98730  -0.97030
 Alpha  occ. eigenvalues --   -0.96919  -0.96573  -0.92715  -0.90670  -0.87753
 Alpha  occ. eigenvalues --   -0.85985  -0.84431  -0.83710  -0.83271  -0.82812
 Alpha  occ. eigenvalues --   -0.82147  -0.78520  -0.77125  -0.74947  -0.74884
 Alpha  occ. eigenvalues --   -0.73780  -0.73043  -0.72740  -0.70934  -0.70475
 Alpha  occ. eigenvalues --   -0.67580  -0.66899  -0.66215  -0.66130  -0.64555
 Alpha  occ. eigenvalues --   -0.64298  -0.63699  -0.62764  -0.62591  -0.61976
 Alpha  occ. eigenvalues --   -0.60789  -0.60532  -0.60337  -0.59490  -0.59121
 Alpha  occ. eigenvalues --   -0.58956  -0.58512  -0.57172  -0.56455  -0.56012
 Alpha  occ. eigenvalues --   -0.55847  -0.55504  -0.55255  -0.54322  -0.54078
 Alpha  occ. eigenvalues --   -0.53794  -0.53686  -0.53637  -0.53311  -0.53155
 Alpha  occ. eigenvalues --   -0.52861  -0.52100  -0.51611  -0.50594  -0.50366
 Alpha  occ. eigenvalues --   -0.50258  -0.49923  -0.49464  -0.49154  -0.48944
 Alpha  occ. eigenvalues --   -0.48801  -0.48525  -0.48298  -0.48026  -0.47357
 Alpha  occ. eigenvalues --   -0.46815  -0.45937  -0.45566  -0.44712  -0.42662
 Alpha  occ. eigenvalues --   -0.41020  -0.40813  -0.39168  -0.38133  -0.37681
 Alpha  occ. eigenvalues --   -0.37490  -0.37401  -0.36929  -0.35934  -0.34770
 Alpha  occ. eigenvalues --   -0.34404  -0.34134  -0.33332  -0.33267  -0.33146
 Alpha  occ. eigenvalues --   -0.32886  -0.32748  -0.32007  -0.31814  -0.30735
 Alpha  occ. eigenvalues --   -0.30382  -0.29626  -0.26053  -0.25348
 Alpha virt. eigenvalues --    0.02892   0.04138   0.07061   0.08025   0.08739
 Alpha virt. eigenvalues --    0.08950   0.09596   0.10377   0.11080   0.12193
 Alpha virt. eigenvalues --    0.12875   0.13458   0.14268   0.14523   0.14994

 Mulliken charges:
               1
     1  N   -0.304876
     2  C    0.181621
     3  C    0.055271
     4  N   -0.250596
     5  C    0.146869
     6  H    0.025344
     7  N   -0.293769
     8  C    0.130591
     9  H    0.009879
    10  N   -0.285135
    11  C    0.238694
    12  C    0.083197
    13  N   -0.052200
    14  H    0.116995
    15  H    0.085673
    16  H    0.025998
    17  H    0.031891
    18  H    0.014399
    19  N   -0.309421
    20  C    0.263133
    21  C    0.182984
    22  N   -0.124594
    23  H    0.118966
    24  H    0.118871
    25  N   -0.311476
    26  C    0.249477
    27  N   -0.144208
    28  H    0.120294
    29  C    0.188527
    30  O   -0.320742
    31  C   -0.016150
    32  N   -0.218996
    33  C    0.111543
    34  H    0.023601
    35  H    0.023853
    36  H    0.031952
    37  H    0.024877
    38  H    0.055843
    39  H    0.058053
    40  H    0.075384
    41  H    0.018495
    42  C   -0.101567
    43  O   -0.273702
    44  C    0.166187
    45  H    0.129709
    46  N   -0.114485
    47  O   -0.350300
    48  C    0.340831
    49  H    0.044461
    50  C    0.162389
    51  C    0.045757
    52  N   -0.275972
    53  H    0.035030
    54  H    0.042181
    55  H    0.026945
    56  H    0.125402
    57  H    0.115181
    58  N   -0.048719
    59  C    0.084069
    60  C    0.221278
    61  N   -0.263629
    62  H    0.030925
    63  C    0.166174
    64  N   -0.307885
    65  H    0.037437
    66  C    0.130217
    67  N   -0.256088
    68  C    0.031386
    69  C    0.180617
    70  N   -0.303943
 Sum of Mulliken charges =  -0.00000

 Dipole moment (field-independent basis, Debye):
    X=             -6.3283    Y=              7.1148    Z=             -3.0072  Tot=              9.9856
 Quadrupole moment (field-independent basis, Debye-Ang):
   XX=           -150.0626   YY=           -223.7421   ZZ=           -257.2819
   XY=             -6.2880   XZ=             -6.8162   YZ=              2.5048

 Normal termination of Gaussian 16 at Sat Jan 20 12:06:39 2018.
