 Gaussian 16, Revision A.03,
 Gaussian 16:  EM64L-G16RevA.03 25-Dec-2016

 ---------------------------------------
 #p wb97xd/cc-pvdz sp scf=(maxcycles=20)
 ---------------------------------------

 ------------------
 Base pair stacking
 ------------------
 Symbolic Z-matrix:
 Charge =  0 Multiplicity = 1

                         Standard orientation:
 ---------------------------------------------------------------------
 Center     Atomic      Atomic             Coordinates (Angstroms)
 Number     Number       Type             X           Y           Z
 ---------------------------------------------------------------------
      1          7           0       -7.137871   -0.973420    0.175870
      2          6           0       -8.445453   -0.289332    0.159208
      3          6           0       -4.997088   -1.420398    0.409412
      4          7           0       -5.589285   -2.587558   -0.050776
      5          6           0       -6.855329   -2.271561   -0.173056
      6          1           0       -7.634054   -2.953062   -0.516684
      7          7           0       -3.414348    0.155939    1.166426
      8          6           0       -4.430705    1.020049    1.255331
      9          1           0       -4.164802    2.016121    1.606612
     10          7           0       -5.720141    0.839330    0.976783
     11          6           0       -5.939061   -0.416749    0.553951
     12          6           0       -3.667252   -1.100001    0.737761
     13          7           0       -2.654017   -1.964018    0.648344
     14          1           0       -2.795018   -2.904068    0.335849
     15          1           0       -1.719959   -1.701290    0.890529
     16          1           0       -9.079820   -0.765011    0.768702
     17          1           0       -8.332577    0.654607    0.468024
     18          1           0       -8.813713   -0.292314   -0.770514
     19          7           0       -2.722700    1.905301   -1.557735
     20          6           0       -1.372864    1.890312   -1.301287
     21          6           0       -3.626208    3.046675   -1.309438
     22          7           0        1.488433    3.488818   -0.152580
     23          1           0        2.458939    3.275701   -0.043312
     24          1           0        1.189880    4.401365    0.128193
     25          7           0       -0.650923    2.907571   -0.783575
     26          6           0        0.625356    2.591842   -0.653041
     27          7           0        1.156047    1.373659   -1.002206
     28          1           0        2.143625    1.220401   -0.867413
     29          6           0        0.432018    0.312516   -1.536620
     30          8           0        1.007563   -0.745994   -1.817809
     31          6           0       -0.940729    0.636701   -1.682732
     32          7           0       -1.997994   -0.120111   -2.168871
     33          6           0       -3.031978    0.671359   -2.075775
     34          1           0       -4.047017    0.404348   -2.371908
     35          1           0       -4.339230    2.775215   -0.663901
     36          1           0       -3.102561    3.806239   -0.925857
     37          1           0       -4.047054    3.333958   -2.169183
     38          1           0        6.985263    0.868236    0.644957
     39          1           0        7.322202    1.199407   -1.052524
     40          1           0        5.884675    1.880695   -0.290464
     41          1           0        6.151027   -3.461415   -1.279805
     42          6           0        5.662166   -2.491486   -1.187614
     43          8           0        3.514982   -3.311877   -1.773866
     44          6           0        4.258498   -2.387511   -1.445945
     45          1           0        2.751372   -1.003297   -1.475048
     46          7           0        3.740090   -1.116501   -1.300878
     47          8           0        3.874624    1.103343   -0.841097
     48          6           0        4.422135    0.019676   -0.943839
     49          1           0        7.423367   -1.426866   -0.630331
     50          6           0        6.354358   -1.401133   -0.837493
     51          6           0        6.541683    1.024460   -0.327105
     52          7           0        5.771331   -0.161562   -0.711392
     53          1           0        3.718167    2.771328    3.395622
     54          1           0        2.605577    3.089097    2.245280
     55          1           0        4.176655    2.919921    1.836414
     56          1           0        0.638939   -3.552741    1.031275
     57          1           0        2.269721   -3.446042    1.520428
     58          7           0        1.409075   -2.979994    1.312333
     59          6           0        1.294543   -1.653597    1.405798
     60          6           0        2.074466    0.550850    1.846078
     61          7           0        0.906422    1.149595    1.560431
     62          1           0       -0.987178    0.649556    0.956409
     63          6           0       -0.006283    0.247265    1.205927
     64          7           0        0.106487   -1.081636    1.111700
     65          1           0        5.174709    0.326389    2.735040
     66          6           0        4.150315    0.132672    2.415638
     67          7           0        3.662126   -1.056094    2.158360
     68          6           0        2.346627   -0.805235    1.796066
     69          6           0        3.452789    2.598552    2.447085
     70          7           0        3.244336    1.151279    2.247186
 ---------------------------------------------------------------------

 SCF Done:  E(RwB97XD) =  -2048.73443324     A.U. after   15 cycles

 The electronic state is 1-A.
 Alpha  occ. eigenvalues --  -19.26077 -19.21946 -19.20538 -14.52537 -14.51322
 Alpha  occ. eigenvalues --  -14.49838 -14.48449 -14.47831 -14.46659 -14.46481
 Alpha  occ. eigenvalues --  -14.46429 -14.44314 -14.43040 -14.42844 -14.42507
 Alpha  occ. eigenvalues --  -14.42499 -14.42118 -14.41978 -14.41200 -14.40665
 Alpha  occ. eigenvalues --  -10.45616 -10.41083 -10.40047 -10.38407 -10.38126
 Alpha  occ. eigenvalues --  -10.37695 -10.36932 -10.36455 -10.35848 -10.35835
 Alpha  occ. eigenvalues --  -10.35145 -10.34515 -10.34281 -10.34208 -10.34195
 Alpha  occ. eigenvalues --  -10.33467 -10.33086 -10.31820 -10.31306 -10.31004
 Alpha  occ. eigenvalues --  -10.30213 -10.29681 -10.28017  -1.19601  -1.14040
 Alpha  occ. eigenvalues --   -1.13137  -1.12977  -1.12452  -1.10407  -1.09421
 Alpha  occ. eigenvalues --   -1.08513  -1.07739  -1.06072  -1.03325  -1.02493
 Alpha  occ. eigenvalues --   -1.01471  -0.99933  -0.99643  -0.98408  -0.97984
 Alpha  occ. eigenvalues --   -0.96338  -0.95366  -0.93696  -0.91032  -0.86543
 Alpha  occ. eigenvalues --   -0.85075  -0.84983  -0.84017  -0.83895  -0.83311
 Alpha  occ. eigenvalues --   -0.82140  -0.78887  -0.75773  -0.74529  -0.73936
 Alpha  occ. eigenvalues --   -0.73654  -0.73434  -0.73333  -0.72165  -0.69188
 Alpha  occ. eigenvalues --   -0.67338  -0.67315  -0.66575  -0.65514  -0.64455
 Alpha  occ. eigenvalues --   -0.63767  -0.63627  -0.63032  -0.62626  -0.61680
 Alpha  occ. eigenvalues --   -0.61145  -0.60246  -0.59526  -0.59374  -0.58913
 Alpha  occ. eigenvalues --   -0.58485  -0.58249  -0.57454  -0.57381  -0.56721
 Alpha  occ. eigenvalues --   -0.56222  -0.56001  -0.54947  -0.54401  -0.54391
 Alpha  occ. eigenvalues --   -0.53672  -0.53499  -0.52933  -0.52798  -0.52704
 Alpha  occ. eigenvalues --   -0.52530  -0.52086  -0.51728  -0.51651  -0.51132
 Alpha  occ. eigenvalues --   -0.50035  -0.49987  -0.49457  -0.48890  -0.48637
 Alpha  occ. eigenvalues --   -0.48549  -0.48143  -0.48049  -0.47740  -0.47518
 Alpha  occ. eigenvalues --   -0.47311  -0.45985  -0.45295  -0.44025  -0.42965
 Alpha  occ. eigenvalues --   -0.42208  -0.39616  -0.39584  -0.38277  -0.37237
 Alpha  occ. eigenvalues --   -0.37178  -0.36814  -0.36077  -0.35457  -0.34700
 Alpha  occ. eigenvalues --   -0.34564  -0.34500  -0.33159  -0.33008  -0.32857
 Alpha  occ. eigenvalues --   -0.32559  -0.32293  -0.31927  -0.31799  -0.31691
 Alpha  occ. eigenvalues --   -0.31322  -0.28231  -0.26830  -0.25363
 Alpha virt. eigenvalues --    0.03208   0.04941   0.06870   0.08250   0.08431
 Alpha virt. eigenvalues --    0.09158   0.09668   0.09883   0.10976   0.12086
 Alpha virt. eigenvalues --    0.12845   0.13103   0.14442   0.14700   0.15036

 Mulliken charges:
               1
     1  N   -0.310963
     2  C    0.180501
     3  C    0.038150
     4  N   -0.256859
     5  C    0.133484
     6  H    0.030076
     7  N   -0.272378
     8  C    0.120389
     9  H    0.022461
    10  N   -0.289529
    11  C    0.232183
    12  C    0.100451
    13  N   -0.042447
    14  H    0.107643
    15  H    0.088715
    16  H    0.028201
    17  H    0.035515
    18  H    0.026868
    19  N   -0.295443
    20  C    0.228876
    21  C    0.182181
    22  N   -0.098038
    23  H    0.104148
    24  H    0.116886
    25  N   -0.289111
    26  C    0.217107
    27  N   -0.112167
    28  H    0.122144
    29  C    0.134506
    30  O   -0.321766
    31  C    0.008765
    32  N   -0.223325
    33  C    0.122402
    34  H    0.028254
    35  H    0.021598
    36  H    0.026093
    37  H    0.022029
    38  H    0.053950
    39  H    0.065058
    40  H    0.074630
    41  H    0.031108
    42  C   -0.103595
    43  O   -0.270154
    44  C    0.182658
    45  H    0.135069
    46  N   -0.132381
    47  O   -0.351583
    48  C    0.354239
    49  H    0.046480
    50  C    0.174068
    51  C    0.033560
    52  N   -0.290924
    53  H    0.033231
    54  H    0.028402
    55  H    0.021977
    56  H    0.118649
    57  H    0.119865
    58  N   -0.060640
    59  C    0.130993
    60  C    0.225852
    61  N   -0.262679
    62  H    0.058556
    63  C    0.142584
    64  N   -0.300854
    65  H    0.025143
    66  C    0.117065
    67  N   -0.254385
    68  C    0.013143
    69  C    0.169611
    70  N   -0.296293
 Sum of Mulliken charges =  -0.00000

 Dipole moment (field-independent basis, Debye):
    X=              5.5131    Y=              5.8550    Z=              3.7106  Tot=              8.8569
 Quadrupole moment (field-independent basis, Debye-Ang):
   XX=           -138.0928   YY=           -227.6073   ZZ=           -255.4278
   XY=             15.8440   XZ=             18.1658   YZ=             -7.3845

 Normal termination of Gaussian 16 at Sun Jan 21 02:17:54 2018.
