 Gaussian 16, Revision A.03,
 Gaussian 16:  EM64L-G16RevA.03 25-Dec-2016

 ---------------------------------------
 #p wb97xd/cc-pvdz sp scf=(maxcycles=20)
 ---------------------------------------

 ------------------
 Base pair stacking
 ------------------
 Symbolic Z-matrix:
 Charge =  0 Multiplicity = 1

                         Standard orientation:
 ---------------------------------------------------------------------
 Center     Atomic      Atomic             Coordinates (Angstroms)
 Number     Number       Type             X           Y           Z
 ---------------------------------------------------------------------
      1          7           0        4.237975   -1.697664   -1.844277
      2          6           0        5.547955   -1.239853   -2.346637
      3          6           0        2.094057   -1.837612   -1.373819
      4          7           0        2.685578   -2.968000   -0.828797
      5          6           0        3.953531   -2.838440   -1.134032
      6          1           0        4.732386   -3.552049   -0.863649
      7          7           0        0.511287   -0.214082   -2.023375
      8          6           0        1.529906    0.442816   -2.587712
      9          1           0        1.264884    1.377869   -3.079332
     10          7           0        2.820688    0.119589   -2.635729
     11          6           0        3.038370   -1.045144   -2.002925
     12          6           0        0.762993   -1.382895   -1.394406
     13          7           0       -0.252506   -2.040090   -0.830463
     14          1           0       -0.112459   -2.908948   -0.354347
     15          1           0       -1.187379   -1.686550   -0.864626
     16          1           0        5.922551   -1.922029   -2.974730
     17          1           0        5.436075   -0.370945   -2.827899
     18          1           0        6.176641   -1.115247   -1.579032
     19          7           0        5.734367    1.461799    0.564624
     20          6           0        4.374219    1.607171    0.694747
     21          6           0        6.663261    2.507564    0.091122
     22          7           0        1.517746    3.562500    0.413747
     23          1           0        0.536518    3.462586    0.576406
     24          1           0        1.833446    4.449006    0.074408
     25          7           0        3.663535    2.720826    0.414149
     26          6           0        2.372579    2.553593    0.640179
     27          7           0        1.818023    1.385883    1.105396
     28          1           0        0.820575    1.348470    1.249203
     29          6           0        2.530098    0.227624    1.400790
     30          8           0        1.932957   -0.773409    1.815619
     31          6           0        3.918366    0.391933    1.162937
     32          7           0        4.971140   -0.498445    1.323524
     33          6           0        6.025772    0.178275    0.957445
     34          1           0        7.044003   -0.212206    0.954641
     35          1           0        7.133570    2.190306   -0.731655
     36          1           0        6.148137    3.337277   -0.119819
     37          1           0        7.335542    2.705990    0.803499
     38          1           0       -4.256550    1.601630    1.142508
     39          1           0       -4.071335    1.887201    2.871320
     40          1           0       -2.828985    2.441842    1.748691
     41          1           0       -3.444002   -2.879497    2.693600
     42          6           0       -2.888027   -1.965814    2.483098
     43          8           0       -0.775435   -3.043666    2.434815
     44          6           0       -1.465466   -2.028832    2.341100
     45          1           0        0.144464   -0.821307    1.969162
     46          7           0       -0.860164   -0.816972    2.076069
     47          8           0       -0.851924    1.423456    1.705104
     48          6           0       -1.474442    0.402788    1.940394
     49          1           0       -4.595461   -0.689214    2.455145
     50          6           0       -3.515526   -0.790764    2.356228
     51          6           0       -3.547195    1.662113    1.954433
     52          7           0       -2.847067    0.381902    2.090905
     53          1           0       -6.684810    2.998602   -2.783113
     54          1           0       -5.253380    3.359609   -2.088275
     55          1           0       -6.637550    3.526447   -1.239560
     56          1           0       -3.641478   -3.131512    0.084891
     57          1           0       -5.326463   -2.867908    0.046901
     58          7           0       -4.403524   -2.511923   -0.103662
     59          6           0       -4.199138   -1.266165   -0.536672
     60          6           0       -4.866085    0.900927   -1.258199
     61          7           0       -3.615677    1.352052   -1.451512
     62          1           0       -1.683402    0.689452   -1.284545
     63          6           0       -2.726994    0.405885   -1.155036
     64          7           0       -2.929698   -0.842419   -0.721198
     65          1           0       -8.096934    0.997050   -1.190857
     66          6           0       -7.046661    0.711386   -1.125612
     67          7           0       -6.616868   -0.463978   -0.736395
     68          6           0       -5.235915   -0.357259   -0.815798
     69          6           0       -6.163969    2.979068   -1.929679
     70          7           0       -6.041056    1.586572   -1.456566
 ---------------------------------------------------------------------

 SCF Done:  E(RwB97XD) =  -2048.74847622     A.U. after   15 cycles

 The electronic state is 1-A.
 Alpha  occ. eigenvalues --  -19.25349 -19.21641 -19.20789 -14.52651 -14.51820
 Alpha  occ. eigenvalues --  -14.49490 -14.48388 -14.48180 -14.47316 -14.47062
 Alpha  occ. eigenvalues --  -14.46877 -14.45535 -14.44785 -14.44769 -14.42576
 Alpha  occ. eigenvalues --  -14.42275 -14.41762 -14.40999 -14.40638 -14.40538
 Alpha  occ. eigenvalues --  -10.44916 -10.41512 -10.40289 -10.39717 -10.38509
 Alpha  occ. eigenvalues --  -10.38135 -10.37537 -10.37230 -10.36221 -10.35564
 Alpha  occ. eigenvalues --  -10.34895 -10.34450 -10.34119 -10.33962 -10.33466
 Alpha  occ. eigenvalues --  -10.33160 -10.33133 -10.33079 -10.31557 -10.30540
 Alpha  occ. eigenvalues --  -10.30491 -10.28653 -10.28333  -1.18887  -1.15430
 Alpha  occ. eigenvalues --   -1.13514  -1.12643  -1.11144  -1.10841  -1.09743
 Alpha  occ. eigenvalues --   -1.08841  -1.08658  -1.05207  -1.05124  -1.01954
 Alpha  occ. eigenvalues --   -1.01138  -1.00535  -0.99984  -0.98930  -0.97287
 Alpha  occ. eigenvalues --   -0.97188  -0.96468  -0.92838  -0.90519  -0.87915
 Alpha  occ. eigenvalues --   -0.86053  -0.84695  -0.83603  -0.83143  -0.82934
 Alpha  occ. eigenvalues --   -0.81979  -0.78387  -0.77294  -0.75168  -0.75091
 Alpha  occ. eigenvalues --   -0.73925  -0.72866  -0.72729  -0.70973  -0.70669
 Alpha  occ. eigenvalues --   -0.67736  -0.67089  -0.66165  -0.66072  -0.64712
 Alpha  occ. eigenvalues --   -0.64478  -0.63589  -0.62900  -0.62620  -0.62124
 Alpha  occ. eigenvalues --   -0.60776  -0.60574  -0.60264  -0.59615  -0.59101
 Alpha  occ. eigenvalues --   -0.58987  -0.58605  -0.57435  -0.56433  -0.55841
 Alpha  occ. eigenvalues --   -0.55781  -0.55606  -0.55353  -0.54649  -0.54328
 Alpha  occ. eigenvalues --   -0.53845  -0.53825  -0.53535  -0.53287  -0.53032
 Alpha  occ. eigenvalues --   -0.52644  -0.51860  -0.51433  -0.50599  -0.50495
 Alpha  occ. eigenvalues --   -0.50287  -0.49945  -0.49664  -0.49379  -0.49028
 Alpha  occ. eigenvalues --   -0.48752  -0.48386  -0.48306  -0.47778  -0.47312
 Alpha  occ. eigenvalues --   -0.46766  -0.45802  -0.45673  -0.44968  -0.42749
 Alpha  occ. eigenvalues --   -0.41190  -0.40948  -0.39119  -0.38165  -0.37846
 Alpha  occ. eigenvalues --   -0.37750  -0.37562  -0.36905  -0.35497  -0.35093
 Alpha  occ. eigenvalues --   -0.34723  -0.34254  -0.33426  -0.33300  -0.33225
 Alpha  occ. eigenvalues --   -0.32951  -0.32693  -0.32129  -0.31373  -0.30670
 Alpha  occ. eigenvalues --   -0.30440  -0.30315  -0.26108  -0.25620
 Alpha virt. eigenvalues --    0.02512   0.04586   0.06515   0.08051   0.08548
 Alpha virt. eigenvalues --    0.08978   0.09496   0.10303   0.10990   0.12079
 Alpha virt. eigenvalues --    0.13258   0.13560   0.14122   0.14663   0.14976

 Mulliken charges:
               1
     1  N   -0.303294
     2  C    0.184891
     3  C    0.049686
     4  N   -0.249065
     5  C    0.153956
     6  H    0.027713
     7  N   -0.296550
     8  C    0.127451
     9  H    0.008784
    10  N   -0.281830
    11  C    0.238113
    12  C    0.081609
    13  N   -0.064230
    14  H    0.118699
    15  H    0.087387
    16  H    0.023394
    17  H    0.030132
    18  H    0.016774
    19  N   -0.310295
    20  C    0.260229
    21  C    0.182475
    22  N   -0.123123
    23  H    0.119511
    24  H    0.119390
    25  N   -0.311150
    26  C    0.250200
    27  N   -0.144055
    28  H    0.120363
    29  C    0.194365
    30  O   -0.317496
    31  C   -0.017700
    32  N   -0.223892
    33  C    0.107830
    34  H    0.026683
    35  H    0.023366
    36  H    0.032748
    37  H    0.026450
    38  H    0.059576
    39  H    0.055941
    40  H    0.075407
    41  H    0.017626
    42  C   -0.114855
    43  O   -0.272007
    44  C    0.168750
    45  H    0.132424
    46  N   -0.123387
    47  O   -0.352096
    48  C    0.346914
    49  H    0.044876
    50  C    0.173284
    51  C    0.044304
    52  N   -0.276598
    53  H    0.034791
    54  H    0.042074
    55  H    0.029736
    56  H    0.125024
    57  H    0.117165
    58  N   -0.050436
    59  C    0.076207
    60  C    0.220759
    61  N   -0.260210
    62  H    0.034216
    63  C    0.164612
    64  N   -0.306707
    65  H    0.039871
    66  C    0.140609
    67  N   -0.259305
    68  C    0.031951
    69  C    0.179431
    70  N   -0.309464
 Sum of Mulliken charges =  -0.00000

 Dipole moment (field-independent basis, Debye):
    X=             -6.3695    Y=              7.7851    Z=             -1.6565  Tot=             10.1943
 Quadrupole moment (field-independent basis, Debye-Ang):
   XX=           -151.5689   YY=           -225.5233   ZZ=           -254.4277
   XY=             -2.3370   XZ=            -14.4502   YZ=              7.5148

 Normal termination of Gaussian 16 at Sat Jan 20 13:41:01 2018.
