 Gaussian 16, Revision A.03,
 Gaussian 16:  EM64L-G16RevA.03 25-Dec-2016

 ---------------------------------------
 #p wb97xd/cc-pvdz sp scf=(maxcycles=20)
 ---------------------------------------

 ------------------
 Base pair stacking
 ------------------
 Symbolic Z-matrix:
 Charge =  0 Multiplicity = 1

                         Standard orientation:
 ---------------------------------------------------------------------
 Center     Atomic      Atomic             Coordinates (Angstroms)
 Number     Number       Type             X           Y           Z
 ---------------------------------------------------------------------
      1          7           0       -6.346811   -1.207482    0.632408
      2          6           0       -7.673967   -0.568497    0.723779
      3          6           0       -4.182922   -1.591105    0.720407
      4          7           0       -4.764323   -2.755700    0.240387
      5          6           0       -6.044709   -2.477971    0.206587
      6          1           0       -6.820597   -3.169393   -0.123400
      7          7           0       -2.608506    0.002404    1.458591
      8          6           0       -3.644507    0.826297    1.646947
      9          1           0       -3.389756    1.813873    2.029105
     10          7           0       -4.941866    0.614408    1.435110
     11          6           0       -5.145811   -0.627879    0.966561
     12          6           0       -2.846706   -1.240656    0.986190
     13          7           0       -1.813847   -2.064531    0.797512
     14          1           0       -1.943465   -2.993662    0.449469
     15          1           0       -0.875816   -1.781272    0.997498
     16          1           0       -8.255779   -1.092831    1.345670
     17          1           0       -7.572769    0.363733    1.069965
     18          1           0       -8.096438   -0.541779   -0.182201
     19          7           0       -3.622126    1.862839   -1.398852
     20          6           0       -2.259653    1.882405   -1.221836
     21          6           0       -4.544815    2.960153   -1.044938
     22          7           0        0.612961    3.523977   -0.165884
     23          1           0        1.594474    3.339453   -0.123099
     24          1           0        0.302991    4.412052    0.174630
     25          7           0       -1.540677    2.899170   -0.699055
     26          6           0       -0.249592    2.621691   -0.657600
     27          7           0        0.297560    1.439526   -1.094210
     28          1           0        1.295729    1.314177   -1.024114
     29          6           0       -0.423113    0.379627   -1.635610
     30          8           0        0.167800   -0.644673   -1.999451
     31          6           0       -1.811638    0.662957   -1.686625
     32          7           0       -2.871514   -0.106699   -2.146188
     33          6           0       -3.922570    0.643873   -1.956092
     34          1           0       -4.944465    0.356038   -2.205402
     35          1           0       -5.209392    2.635370   -0.372878
     36          1           0       -4.023530    3.718950   -0.656677
     37          1           0       -5.024757    3.271667   -1.864344
     38          1           0        6.227229    1.059477    0.187566
     39          1           0        6.452294    1.478846   -1.508938
     40          1           0        5.041751    2.075173   -0.633646
     41          1           0        5.417080   -3.204147   -1.888891
     42          6           0        4.904244   -2.256725   -1.722728
     43          8           0        2.752981   -3.122590   -2.222168
     44          6           0        3.485153   -2.189195   -1.894298
     45          1           0        1.936105   -0.857476   -1.770607
     46          7           0        2.936487   -0.944584   -1.659420
     47          8           0        3.028064    1.255343   -1.103454
     48          6           0        3.602377    0.196843   -1.288923
     49          1           0        6.660990   -1.158910   -1.218291
     50          6           0        5.581302   -1.160371   -1.361881
     51          6           0        5.722061    1.244478   -0.748734
     52          7           0        4.968028    0.051503   -1.143673
     53          1           0        4.557737    2.756239    3.393434
     54          1           0        3.369431    3.087739    2.325661
     55          1           0        4.918042    2.991198    1.819139
     56          1           0        1.544426   -3.555410    0.913776
     57          1           0        3.197177   -3.415327    1.312392
     58          7           0        2.311451   -2.970008    1.176710
     59          6           0        2.160938   -1.653940    1.339416
     60          6           0        2.895780    0.553596    1.837919
     61          7           0        1.694574    1.124392    1.648949
     62          1           0       -0.214827    0.587839    1.132322
     63          6           0        0.791332    0.208411    1.305391
     64          7           0        0.940114   -1.110190    1.141904
     65          1           0        6.048827    0.395149    2.534617
     66          6           0        5.013895    0.181225    2.266114
     67          7           0        4.548991   -1.010617    1.981401
     68          6           0        3.207073   -0.788702    1.708025
     69          6           0        4.242150    2.617802    2.454691
     70          7           0        4.067897    1.174834    2.198776
 ---------------------------------------------------------------------

 SCF Done:  E(RwB97XD) =  -2048.75088139     A.U. after   15 cycles

 The electronic state is 1-A.
 Alpha  occ. eigenvalues --  -19.25778 -19.21877 -19.20497 -14.52381 -14.52021
 Alpha  occ. eigenvalues --  -14.49429 -14.48403 -14.47746 -14.47309 -14.46616
 Alpha  occ. eigenvalues --  -14.46267 -14.45000 -14.43580 -14.43556 -14.42819
 Alpha  occ. eigenvalues --  -14.41978 -14.41801 -14.41691 -14.40812 -14.40598
 Alpha  occ. eigenvalues --  -10.45414 -10.40912 -10.40001 -10.39250 -10.38013
 Alpha  occ. eigenvalues --  -10.37605 -10.37546 -10.36644 -10.36041 -10.35564
 Alpha  occ. eigenvalues --  -10.35213 -10.34641 -10.34024 -10.33984 -10.33917
 Alpha  occ. eigenvalues --  -10.33722 -10.33092 -10.31983 -10.31652 -10.30855
 Alpha  occ. eigenvalues --  -10.30065 -10.29115 -10.27804  -1.19408  -1.14711
 Alpha  occ. eigenvalues --   -1.13021  -1.12907  -1.11981  -1.10321  -1.09249
 Alpha  occ. eigenvalues --   -1.08556  -1.08317  -1.05643  -1.04093  -1.02418
 Alpha  occ. eigenvalues --   -1.01083  -1.00498  -0.99424  -0.98319  -0.97573
 Alpha  occ. eigenvalues --   -0.96226  -0.96133  -0.93309  -0.90895  -0.87190
 Alpha  occ. eigenvalues --   -0.85623  -0.84579  -0.83832  -0.83710  -0.82943
 Alpha  occ. eigenvalues --   -0.81979  -0.78746  -0.76497  -0.74381  -0.74231
 Alpha  occ. eigenvalues --   -0.73504  -0.73416  -0.73243  -0.71691  -0.69877
 Alpha  occ. eigenvalues --   -0.67107  -0.66917  -0.66444  -0.66198  -0.64344
 Alpha  occ. eigenvalues --   -0.63758  -0.63490  -0.63298  -0.62502  -0.61460
 Alpha  occ. eigenvalues --   -0.60928  -0.60824  -0.60063  -0.59381  -0.59079
 Alpha  occ. eigenvalues --   -0.58423  -0.58046  -0.57244  -0.57132  -0.56304
 Alpha  occ. eigenvalues --   -0.55972  -0.55845  -0.54999  -0.54713  -0.54254
 Alpha  occ. eigenvalues --   -0.53892  -0.53357  -0.53012  -0.52779  -0.52604
 Alpha  occ. eigenvalues --   -0.52484  -0.52359  -0.52226  -0.51345  -0.50810
 Alpha  occ. eigenvalues --   -0.49868  -0.49750  -0.49342  -0.49068  -0.48880
 Alpha  occ. eigenvalues --   -0.48544  -0.48220  -0.47986  -0.47556  -0.47341
 Alpha  occ. eigenvalues --   -0.47217  -0.45410  -0.45403  -0.44204  -0.43639
 Alpha  occ. eigenvalues --   -0.41821  -0.40286  -0.39381  -0.37844  -0.37274
 Alpha  occ. eigenvalues --   -0.37214  -0.37048  -0.36900  -0.35735  -0.34390
 Alpha  occ. eigenvalues --   -0.34160  -0.33924  -0.33787  -0.33493  -0.33074
 Alpha  occ. eigenvalues --   -0.32507  -0.32051  -0.31812  -0.31694  -0.31542
 Alpha  occ. eigenvalues --   -0.31049  -0.29216  -0.26376  -0.25068
 Alpha virt. eigenvalues --    0.03160   0.04628   0.07316   0.07711   0.08345
 Alpha virt. eigenvalues --    0.09047   0.09960   0.10438   0.10939   0.11563
 Alpha virt. eigenvalues --    0.13169   0.13579   0.14451   0.14611   0.14903

 Mulliken charges:
               1
     1  N   -0.310763
     2  C    0.179293
     3  C    0.061796
     4  N   -0.254997
     5  C    0.130808
     6  H    0.028077
     7  N   -0.280558
     8  C    0.134184
     9  H    0.015808
    10  N   -0.289038
    11  C    0.226968
    12  C    0.100345
    13  N   -0.045034
    14  H    0.109859
    15  H    0.089724
    16  H    0.028140
    17  H    0.034051
    18  H    0.024749
    19  N   -0.293660
    20  C    0.245398
    21  C    0.180791
    22  N   -0.104435
    23  H    0.112555
    24  H    0.114051
    25  N   -0.301088
    26  C    0.219679
    27  N   -0.140597
    28  H    0.126754
    29  C    0.159360
    30  O   -0.323790
    31  C    0.003480
    32  N   -0.222018
    33  C    0.122873
    34  H    0.020629
    35  H    0.021404
    36  H    0.025726
    37  H    0.020232
    38  H    0.042836
    39  H    0.062902
    40  H    0.074684
    41  H    0.027988
    42  C   -0.108540
    43  O   -0.269575
    44  C    0.170945
    45  H    0.133708
    46  N   -0.126501
    47  O   -0.341394
    48  C    0.343195
    49  H    0.045163
    50  C    0.181724
    51  C    0.039941
    52  N   -0.279740
    53  H    0.034612
    54  H    0.036901
    55  H    0.016978
    56  H    0.123756
    57  H    0.118928
    58  N   -0.055772
    59  C    0.114222
    60  C    0.239419
    61  N   -0.278471
    62  H    0.036792
    63  C    0.161020
    64  N   -0.303707
    65  H    0.037592
    66  C    0.106444
    67  N   -0.246661
    68  C    0.006960
    69  C    0.181877
    70  N   -0.298982
 Sum of Mulliken charges =  -0.00000

 Dipole moment (field-independent basis, Debye):
    X=              5.9655    Y=              6.0342    Z=              3.8334  Tot=              9.3110
 Quadrupole moment (field-independent basis, Debye-Ang):
   XX=           -144.2703   YY=           -225.9185   ZZ=           -258.3142
   XY=             11.7498   XZ=              9.5182   YZ=             -7.3544

 Normal termination of Gaussian 16 at Sat Jan 20 23:54:40 2018.
