 Gaussian 16, Revision A.03,
 Gaussian 16:  EM64L-G16RevA.03 25-Dec-2016

 ---------------------------------------
 #p wb97xd/cc-pvdz sp scf=(maxcycles=20)
 ---------------------------------------

 ------------------
 Base pair stacking
 ------------------
 Symbolic Z-matrix:
 Charge =  0 Multiplicity = 1

                         Standard orientation:
 ---------------------------------------------------------------------
 Center     Atomic      Atomic             Coordinates (Angstroms)
 Number     Number       Type             X           Y           Z
 ---------------------------------------------------------------------
      1          7           0        5.783928   -1.434840   -0.960205
      2          6           0        7.121607   -0.859117   -1.199280
      3          6           0        3.608091   -1.744993   -0.877535
      4          7           0        4.182674   -2.872152   -0.308244
      5          6           0        5.470542   -2.640179   -0.380840
      6          1           0        6.244157   -3.320559   -0.023682
      7          7           0        2.039783   -0.182492   -1.691143
      8          6           0        3.086572    0.577346   -2.029458
      9          1           0        2.838568    1.526999   -2.501600
     10          7           0        4.387593    0.341343   -1.872843
     11          6           0        4.582563   -0.850211   -1.284107
     12          6           0        2.269139   -1.375667   -1.100536
     13          7           0        1.225505   -2.135578   -0.762083
     14          1           0        1.348302   -3.026173   -0.322784
     15          1           0        0.285842   -1.840744   -0.936010
     16          1           0        7.646900   -1.468416   -1.793408
     17          1           0        7.027363    0.033687   -1.638761
     18          1           0        7.600811   -0.751055   -0.328247
     19          7           0        4.235667    1.847610    1.174488
     20          6           0        2.866067    1.898891    1.076475
     21          6           0        5.163042    2.911693    0.740412
     22          7           0       -0.021792    3.590412    0.148670
     23          1           0       -1.008413    3.430835    0.167570
     24          1           0        0.289691    4.461829   -0.231226
     25          7           0        2.143192    2.921745    0.571221
     26          6           0        0.845389    2.677453    0.611732
     27          7           0        0.295526    1.520623    1.108631
     28          1           0       -0.707849    1.419988    1.099765
     29          6           0        1.020107    0.455052    1.633423
     30          8           0        0.426237   -0.544554    2.056319
     31          6           0        2.415854    0.702850    1.596651
     32          7           0        3.481383   -0.083491    2.012869
     33          6           0        4.537837    0.634510    1.743449
     34          1           0        5.565113    0.325772    1.940059
     35          1           0        5.778728    2.553925    0.039173
     36          1           0        4.638927    3.674673    0.364354
     37          1           0        5.697858    3.229519    1.522567
     38          1           0       -5.706774    1.266975    0.183265
     39          1           0       -5.821354    1.731630    1.879030
     40          1           0       -4.450205    2.270002    0.908741
     41          1           0       -4.882620   -2.966855    2.314466
     42          6           0       -4.356976   -2.037397    2.095302
     43          8           0       -2.202345   -2.947696    2.490314
     44          6           0       -2.929010   -2.003262    2.182435
     45          1           0       -1.357201   -0.716035    1.935920
     46          7           0       -2.364249   -0.779350    1.885227
     47          8           0       -2.433458    1.408651    1.281018
     48          6           0       -3.022098    0.370254    1.525783
     49          1           0       -6.112401   -0.905801    1.666629
     50          6           0       -5.026521   -0.932331    1.747265
     51          6           0       -5.143080    1.460426    1.083756
     52          7           0       -4.397106    0.257561    1.463752
     53          1           0       -5.146475    2.612239   -3.488217
     54          1           0       -3.883845    3.012018   -2.535312
     55          1           0       -5.399789    3.028016   -1.930537
     56          1           0       -2.177391   -3.504466   -0.515685
     57          1           0       -3.846874   -3.346629   -0.828745
     58          7           0       -2.941195   -2.922567   -0.795220
     59          6           0       -2.761091   -1.638063   -1.109534
     60          6           0       -3.458069    0.529005   -1.802170
     61          7           0       -2.230498    1.071749   -1.748172
     62          1           0       -0.309671    0.523131   -1.289825
     63          6           0       -1.335828    0.164989   -1.360520
     64          7           0       -1.514233   -1.122010   -1.045266
     65          1           0       -6.652032    0.414011   -2.289581
     66          6           0       -5.609289    0.191812   -2.060991
     67          7           0       -5.164017   -0.979034   -1.675620
     68          6           0       -3.801421   -0.779092   -1.508035
     69          6           0       -4.776889    2.563716   -2.560295
     70          7           0       -4.631026    1.151067   -2.158835
 ---------------------------------------------------------------------

 SCF Done:  E(RwB97XD) =  -2048.75455763     A.U. after   15 cycles

 The electronic state is 1-A.
 Alpha  occ. eigenvalues --  -19.25602 -19.21782 -19.20564 -14.52385 -14.52138
 Alpha  occ. eigenvalues --  -14.49024 -14.48584 -14.47659 -14.47555 -14.46822
 Alpha  occ. eigenvalues --  -14.46516 -14.45435 -14.44069 -14.44023 -14.42527
 Alpha  occ. eigenvalues --  -14.41905 -14.41505 -14.41284 -14.40792 -14.40502
 Alpha  occ. eigenvalues --  -10.45180 -10.41133 -10.39922 -10.39632 -10.38167
 Alpha  occ. eigenvalues --  -10.37947 -10.37427 -10.37053 -10.35678 -10.35539
 Alpha  occ. eigenvalues --  -10.35130 -10.34225 -10.34199 -10.34022 -10.33582
 Alpha  occ. eigenvalues --  -10.33338 -10.33251 -10.32504 -10.31458 -10.30735
 Alpha  occ. eigenvalues --  -10.30563 -10.28693 -10.27981  -1.19205  -1.15146
 Alpha  occ. eigenvalues --   -1.13106  -1.12823  -1.11549  -1.10452  -1.09066
 Alpha  occ. eigenvalues --   -1.08973  -1.08459  -1.05293  -1.04487  -1.02253
 Alpha  occ. eigenvalues --   -1.00881  -1.00710  -0.99606  -0.98436  -0.97196
 Alpha  occ. eigenvalues --   -0.96537  -0.96425  -0.92963  -0.90732  -0.87534
 Alpha  occ. eigenvalues --   -0.85889  -0.84213  -0.83950  -0.83513  -0.82624
 Alpha  occ. eigenvalues --   -0.82277  -0.78559  -0.76861  -0.74672  -0.74464
 Alpha  occ. eigenvalues --   -0.73522  -0.73142  -0.73115  -0.71300  -0.70210
 Alpha  occ. eigenvalues --   -0.67260  -0.66571  -0.66547  -0.66275  -0.64267
 Alpha  occ. eigenvalues --   -0.64029  -0.63605  -0.62980  -0.62537  -0.61646
 Alpha  occ. eigenvalues --   -0.61132  -0.60600  -0.60296  -0.59347  -0.59190
 Alpha  occ. eigenvalues --   -0.58532  -0.58233  -0.57078  -0.56837  -0.56206
 Alpha  occ. eigenvalues --   -0.55767  -0.55725  -0.55211  -0.54420  -0.54113
 Alpha  occ. eigenvalues --   -0.53752  -0.53463  -0.53315  -0.53187  -0.52789
 Alpha  occ. eigenvalues --   -0.52654  -0.52328  -0.52113  -0.51043  -0.50508
 Alpha  occ. eigenvalues --   -0.50004  -0.49845  -0.49269  -0.49094  -0.48841
 Alpha  occ. eigenvalues --   -0.48650  -0.48274  -0.48186  -0.47345  -0.47259
 Alpha  occ. eigenvalues --   -0.47175  -0.45825  -0.45078  -0.44638  -0.43359
 Alpha  occ. eigenvalues --   -0.41333  -0.40573  -0.39232  -0.37661  -0.37408
 Alpha  occ. eigenvalues --   -0.37373  -0.37190  -0.37129  -0.36071  -0.34530
 Alpha  occ. eigenvalues --   -0.34178  -0.34047  -0.33640  -0.33526  -0.33029
 Alpha  occ. eigenvalues --   -0.32553  -0.32244  -0.31832  -0.31785  -0.31128
 Alpha  occ. eigenvalues --   -0.30732  -0.29445  -0.25908  -0.25343
 Alpha virt. eigenvalues --    0.03455   0.04061   0.07253   0.07555   0.08442
 Alpha virt. eigenvalues --    0.09067   0.09888   0.10566   0.10906   0.12061
 Alpha virt. eigenvalues --    0.13178   0.13825   0.14018   0.14497   0.14917

 Mulliken charges:
               1
     1  N   -0.308811
     2  C    0.177304
     3  C    0.070316
     4  N   -0.252983
     5  C    0.132304
     6  H    0.026577
     7  N   -0.290183
     8  C    0.135700
     9  H    0.012645
    10  N   -0.287621
    11  C    0.226863
    12  C    0.094521
    13  N   -0.047215
    14  H    0.111572
    15  H    0.086282
    16  H    0.027891
    17  H    0.034337
    18  H    0.021816
    19  N   -0.296436
    20  C    0.249422
    21  C    0.183271
    22  N   -0.116420
    23  H    0.115858
    24  H    0.116863
    25  N   -0.305680
    26  C    0.233712
    27  N   -0.143975
    28  H    0.121804
    29  C    0.182702
    30  O   -0.324252
    31  C   -0.015324
    32  N   -0.218692
    33  C    0.123271
    34  H    0.017123
    35  H    0.023792
    36  H    0.028465
    37  H    0.021063
    38  H    0.047906
    39  H    0.061373
    40  H    0.073995
    41  H    0.023537
    42  C   -0.109719
    43  O   -0.271333
    44  C    0.163003
    45  H    0.131978
    46  N   -0.114239
    47  O   -0.339990
    48  C    0.334618
    49  H    0.044833
    50  C    0.176582
    51  C    0.042732
    52  N   -0.277149
    53  H    0.035260
    54  H    0.040009
    55  H    0.020744
    56  H    0.126413
    57  H    0.117822
    58  N   -0.053357
    59  C    0.093569
    60  C    0.224902
    61  N   -0.264267
    62  H    0.036223
    63  C    0.152277
    64  N   -0.298666
    65  H    0.036391
    66  C    0.109393
    67  N   -0.251430
    68  C    0.036557
    69  C    0.182844
    70  N   -0.300688
 Sum of Mulliken charges =  -0.00000

 Dipole moment (field-independent basis, Debye):
    X=             -6.2166    Y=              6.4331    Z=             -3.6386  Tot=              9.6577
 Quadrupole moment (field-independent basis, Debye-Ang):
   XX=           -146.9753   YY=           -224.4937   ZZ=           -259.0293
   XY=             -9.0276   XZ=              3.5474   YZ=              5.8426

 Normal termination of Gaussian 16 at Sat Jan 20 07:18:13 2018.
