 Gaussian 16, Revision A.03,
 Gaussian 16:  EM64L-G16RevA.03 25-Dec-2016

 ---------------------------------------
 #p wb97xd/cc-pvdz sp scf=(maxcycles=20)
 ---------------------------------------

 ------------------
 Base pair stacking
 ------------------
 Symbolic Z-matrix:
 Charge =  0 Multiplicity = 1

                         Standard orientation:
 ---------------------------------------------------------------------
 Center     Atomic      Atomic             Coordinates (Angstroms)
 Number     Number       Type             X           Y           Z
 ---------------------------------------------------------------------
      1          7           0       -5.495095   -1.872434    0.792825
      2          6           0       -6.829424   -1.502417    1.303360
      3          6           0       -3.321319   -2.023505    0.494195
      4          7           0       -3.901886   -2.853851   -0.453544
      5          6           0       -5.188268   -2.729604   -0.235695
      6          1           0       -5.965420   -3.244955   -0.800838
      7          7           0       -1.744860   -0.846878    1.795441
      8          6           0       -2.787354   -0.334690    2.457594
      9          1           0       -2.534279    0.357048    3.259906
     10          7           0       -4.089427   -0.547705    2.278310
     11          6           0       -4.290783   -1.411805    1.269736
     12          6           0       -1.980610   -1.713282    0.786066
     13          7           0       -0.941278   -2.225616    0.123902
     14          1           0       -1.068855   -2.870697   -0.630293
     15          1           0       -0.000186   -1.982249    0.358996
     16          1           0       -7.303575   -2.321909    1.625549
     17          1           0       -6.730382   -0.856694    2.059906
     18          1           0       -7.362298   -1.077022    0.571879
     19          7           0       -4.528667    2.124577   -0.654969
     20          6           0       -3.156945    2.189669   -0.607990
     21          6           0       -5.451232    3.086953   -0.019837
     22          7           0       -0.255661    3.777238    0.452161
     23          1           0        0.731375    3.644126    0.366724
     24          1           0       -0.562614    4.571293    0.977485
     25          7           0       -2.427313    3.136126    0.021228
     26          6           0       -1.129172    2.929537   -0.112021
     27          7           0       -0.585134    1.877211   -0.807826
     28          1           0        0.419003    1.798312   -0.857292
     29          6           0       -1.316720    0.891611   -1.462994
     30          8           0       -0.727727   -0.016130   -2.062864
     31          6           0       -2.712921    1.100103   -1.328752
     32          7           0       -3.784322    0.365759   -1.818379
     33          6           0       -4.838114    1.009428   -1.394796
     34          1           0       -5.868507    0.713044   -1.594089
     35          1           0       -6.029272    2.610302    0.641585
     36          1           0       -4.922098    3.792746    0.449346
     37          1           0       -6.025461    3.511790   -0.718834
     38          1           0        5.455906    1.612366   -0.188166
     39          1           0        5.486958    2.339619   -1.792781
     40          1           0        4.153118    2.689163   -0.692757
     41          1           0        4.599516   -2.251735   -2.923461
     42          6           0        4.070528   -1.379828   -2.538523
     43          8           0        1.914054   -2.263620   -2.980815
     44          6           0        2.639746   -1.363567   -2.558840
     45          1           0        1.061682   -0.165475   -2.046374
     46          7           0        2.070820   -0.214008   -2.048847
     47          8           0        2.134668    1.853134   -1.110731
     48          6           0        2.727033    0.879040   -1.540745
     49          1           0        5.826487   -0.291510   -2.011283
     50          6           0        4.738590   -0.328701   -2.049193
     51          6           0        4.849349    1.932335   -1.022298
     52          7           0        4.104973    0.788000   -1.555346
     53          1           0        5.467330    1.321793    4.237463
     54          1           0        4.140797    2.011065    3.583760
     55          1           0        5.617040    2.337146    2.968579
     56          1           0        2.472459   -3.224043   -0.805517
     57          1           0        4.153437   -3.128271   -0.531244
     58          7           0        3.237528   -2.768216   -0.350495
     59          6           0        3.045963   -1.726454    0.461421
     60          6           0        3.731264    0.012024    1.934447
     61          7           0        2.490060    0.474145    2.158714
     62          1           0        0.558898    0.067276    1.605846
     63          6           0        1.595690   -0.241782    1.480156
     64          7           0        1.785562   -1.285535    0.666450
     65          1           0        6.950481   -0.141797    2.189599
     66          6           0        5.901531   -0.301543    1.938355
     67          7           0        5.462054   -1.239519    1.135404
     68          6           0        4.087500   -1.051923    1.124117
     69          6           0        5.044170    1.631654    3.386041
     70          7           0        4.908288    0.492517    2.457648
 ---------------------------------------------------------------------

 SCF Done:  E(RwB97XD) =  -2048.74400503     A.U. after   15 cycles

 The electronic state is 1-A.
 Alpha  occ. eigenvalues --  -19.25759 -19.22209 -19.20770 -14.52271 -14.52162
 Alpha  occ. eigenvalues --  -14.48953 -14.48578 -14.47799 -14.47359 -14.47048
 Alpha  occ. eigenvalues --  -14.46820 -14.45298 -14.44015 -14.44002 -14.42151
 Alpha  occ. eigenvalues --  -14.42038 -14.41096 -14.41000 -14.40862 -14.40202
 Alpha  occ. eigenvalues --  -10.45311 -10.41393 -10.40347 -10.39474 -10.38395
 Alpha  occ. eigenvalues --  -10.37811 -10.37247 -10.36941 -10.35487 -10.35271
 Alpha  occ. eigenvalues --  -10.35144 -10.34530 -10.33774 -10.33767 -10.33568
 Alpha  occ. eigenvalues --  -10.33174 -10.33013 -10.32430 -10.31103 -10.31038
 Alpha  occ. eigenvalues --  -10.30970 -10.28289 -10.28287  -1.19321  -1.15008
 Alpha  occ. eigenvalues --   -1.13357  -1.13330  -1.11102  -1.10757  -1.09158
 Alpha  occ. eigenvalues --   -1.08939  -1.08713  -1.04915  -1.04462  -1.02506
 Alpha  occ. eigenvalues --   -1.00756  -1.00271  -0.99892  -0.98694  -0.96796
 Alpha  occ. eigenvalues --   -0.96739  -0.96478  -0.92579  -0.90859  -0.87395
 Alpha  occ. eigenvalues --   -0.85709  -0.84282  -0.83806  -0.83546  -0.82658
 Alpha  occ. eigenvalues --   -0.82224  -0.78695  -0.76753  -0.74797  -0.74551
 Alpha  occ. eigenvalues --   -0.73786  -0.73330  -0.72740  -0.70908  -0.70096
 Alpha  occ. eigenvalues --   -0.67546  -0.66595  -0.66334  -0.66137  -0.64527
 Alpha  occ. eigenvalues --   -0.63986  -0.63769  -0.62764  -0.62559  -0.61928
 Alpha  occ. eigenvalues --   -0.60696  -0.60289  -0.60136  -0.59245  -0.59213
 Alpha  occ. eigenvalues --   -0.58858  -0.58521  -0.56923  -0.56450  -0.56247
 Alpha  occ. eigenvalues --   -0.55978  -0.55339  -0.55032  -0.54526  -0.54301
 Alpha  occ. eigenvalues --   -0.53785  -0.53663  -0.53382  -0.53214  -0.53099
 Alpha  occ. eigenvalues --   -0.52557  -0.52385  -0.51711  -0.50702  -0.50338
 Alpha  occ. eigenvalues --   -0.50170  -0.49708  -0.49574  -0.49358  -0.49011
 Alpha  occ. eigenvalues --   -0.48733  -0.48567  -0.47913  -0.47736  -0.47497
 Alpha  occ. eigenvalues --   -0.46831  -0.46017  -0.44767  -0.44690  -0.43175
 Alpha  occ. eigenvalues --   -0.40933  -0.40465  -0.39373  -0.37855  -0.37426
 Alpha  occ. eigenvalues --   -0.37378  -0.37208  -0.36953  -0.36193  -0.34432
 Alpha  occ. eigenvalues --   -0.34244  -0.33916  -0.33497  -0.33342  -0.33247
 Alpha  occ. eigenvalues --   -0.32786  -0.32440  -0.32169  -0.31980  -0.30756
 Alpha  occ. eigenvalues --   -0.30331  -0.29117  -0.25893  -0.25289
 Alpha virt. eigenvalues --    0.03300   0.04307   0.07404   0.07908   0.08234
 Alpha virt. eigenvalues --    0.09164   0.09580   0.10532   0.11144   0.12130
 Alpha virt. eigenvalues --    0.13109   0.13518   0.14359   0.14509   0.14969

 Mulliken charges:
               1
     1  N   -0.309064
     2  C    0.179784
     3  C    0.062091
     4  N   -0.248667
     5  C    0.133451
     6  H    0.024655
     7  N   -0.295985
     8  C    0.134819
     9  H    0.010649
    10  N   -0.290180
    11  C    0.234598
    12  C    0.092745
    13  N   -0.044999
    14  H    0.114729
    15  H    0.084936
    16  H    0.026526
    17  H    0.032805
    18  H    0.018710
    19  N   -0.307731
    20  C    0.260033
    21  C    0.182249
    22  N   -0.123392
    23  H    0.117502
    24  H    0.118709
    25  N   -0.311426
    26  C    0.247951
    27  N   -0.148654
    28  H    0.119721
    29  C    0.194134
    30  O   -0.324438
    31  C   -0.020025
    32  N   -0.217749
    33  C    0.123285
    34  H    0.019333
    35  H    0.027044
    36  H    0.030291
    37  H    0.023568
    38  H    0.054107
    39  H    0.060657
    40  H    0.074288
    41  H    0.021006
    42  C   -0.108394
    43  O   -0.278698
    44  C    0.153691
    45  H    0.130280
    46  N   -0.103829
    47  O   -0.346745
    48  C    0.337182
    49  H    0.045129
    50  C    0.176307
    51  C    0.042498
    52  N   -0.278988
    53  H    0.034134
    54  H    0.042029
    55  H    0.023691
    56  H    0.127516
    57  H    0.115382
    58  N   -0.044064
    59  C    0.077546
    60  C    0.235626
    61  N   -0.269438
    62  H    0.032323
    63  C    0.163313
    64  N   -0.300360
    65  H    0.035226
    66  C    0.120202
    67  N   -0.258067
    68  C    0.039365
    69  C    0.181962
    70  N   -0.306880
 Sum of Mulliken charges =  -0.00000

 Dipole moment (field-independent basis, Debye):
    X=              6.3445    Y=              6.3851    Z=              3.9751  Tot=              9.8399
 Quadrupole moment (field-independent basis, Debye-Ang):
   XX=           -148.1216   YY=           -224.3616   ZZ=           -256.2709
   XY=              6.9624   XZ=              2.5640   YZ=              3.4130

 Normal termination of Gaussian 16 at Sat Jan 20 14:54:08 2018.
