 Gaussian 16, Revision A.03,
 Gaussian 16:  EM64L-G16RevA.03 25-Dec-2016

 ---------------------------------------
 #p wb97xd/cc-pvdz sp scf=(maxcycles=20)
 ---------------------------------------

 ------------------
 Base pair stacking
 ------------------
 Symbolic Z-matrix:
 Charge =  0 Multiplicity = 1

                         Standard orientation:
 ---------------------------------------------------------------------
 Center     Atomic      Atomic             Coordinates (Angstroms)
 Number     Number       Type             X           Y           Z
 ---------------------------------------------------------------------
      1          7           0       -7.101179   -0.956101    0.190599
      2          6           0       -8.398204   -0.262898    0.067338
      3          6           0       -4.968878   -1.395821    0.502469
      4          7           0       -5.575561   -2.607519    0.205107
      5          6           0       -6.835907   -2.294118    0.029116
      6          1           0       -7.622554   -3.006081   -0.222371
      7          7           0       -3.367557    0.248723    1.044868
      8          6           0       -4.371379    1.130888    1.003419
      9          1           0       -4.092823    2.162520    1.214135
     10          7           0       -5.661566    0.930961    0.741988
     11          6           0       -5.896594   -0.368761    0.497206
     12          6           0       -3.636524   -1.051196    0.793999
     13          7           0       -2.635820   -1.933287    0.834903
     14          1           0       -2.788893   -2.905765    0.655817
     15          1           0       -1.699489   -1.652297    1.045843
     16          1           0       -9.043543   -0.639647    0.732000
     17          1           0       -8.273163    0.713314    0.242003
     18          1           0       -8.760486   -0.390866   -0.855894
     19          7           0       -2.779563    1.772685   -1.531506
     20          6           0       -1.431366    1.771251   -1.266158
     21          6           0       -3.702250    2.892753   -1.258029
     22          7           0        1.397225    3.380858   -0.053706
     23          1           0        2.370183    3.179670    0.056406
     24          1           0        1.082721    4.280573    0.250125
     25          7           0       -0.728679    2.784676   -0.715460
     26          6           0        0.551461    2.485022   -0.584812
     27          7           0        1.103238    1.285275   -0.963840
     28          1           0        2.092173    1.143468   -0.826442
     29          6           0        0.399263    0.228418   -1.532461
     30          8           0        0.992975   -0.812930   -1.838804
     31          6           0       -0.977353    0.535482   -1.679124
     32          7           0       -2.019555   -0.223637   -2.193388
     33          6           0       -3.066274    0.549014   -2.085648
     34          1           0       -4.075080    0.274823   -2.396133
     35          1           0       -4.415196    2.592583   -0.625253
     36          1           0       -3.192970    3.649301   -0.849938
     37          1           0       -4.121858    3.197329   -2.112422
     38          1           0        6.928669    0.823621    0.709364
     39          1           0        7.271547    1.206924   -0.975912
     40          1           0        5.818667    1.844689   -0.205339
     41          1           0        6.174274   -3.463172   -1.340250
     42          6           0        5.669847   -2.503785   -1.224675
     43          8           0        3.539528   -3.340344   -1.848377
     44          6           0        4.266456   -2.414172   -1.489814
     45          1           0        2.738280   -1.052917   -1.491122
     46          7           0        3.727482   -1.155766   -1.313259
     47          8           0        3.824559    1.052243   -0.791302
     48          6           0        4.389469   -0.019643   -0.920159
     49          1           0        7.410640   -1.428205   -0.625856
     50          6           0        6.342749   -1.413101   -0.839687
     51          6           0        6.489097    0.999966   -0.261073
     52          7           0        5.739759   -0.186575   -0.683405
     53          1           0        3.788944    3.050636    2.946494
     54          1           0        2.688658    3.219720    1.753648
     55          1           0        4.259607    2.973052    1.385764
     56          1           0        0.630414   -3.498555    1.464165
     57          1           0        2.259434   -3.347197    1.947347
     58          7           0        1.407233   -2.902902    1.668827
     59          6           0        1.312009   -1.575018    1.574839
     60          6           0        2.122085    0.658246    1.708985
     61          7           0        0.965020    1.227357    1.332511
     62          1           0       -0.931963    0.674155    0.788394
     63          6           0        0.041175    0.297105    1.100017
     64          7           0        0.134598   -1.033339    1.193588
     65          1           0        5.212848    0.517205    2.646795
     66          6           0        4.187727    0.294994    2.348976
     67          7           0        3.683419   -0.911149    2.256414
     68          6           0        2.374179   -0.695141    1.851471
     69          6           0        3.527096    2.750481    2.029244
     70          7           0        3.298240    1.292532    2.032026
 ---------------------------------------------------------------------

 SCF Done:  E(RwB97XD) =  -2048.68627682     A.U. after   15 cycles

 The electronic state is 1-A.
 Alpha  occ. eigenvalues --  -19.26111 -19.21896 -19.20433 -14.52590 -14.51440
 Alpha  occ. eigenvalues --  -14.49983 -14.48304 -14.47848 -14.46777 -14.46036
 Alpha  occ. eigenvalues --  -14.46000 -14.44466 -14.43291 -14.43121 -14.42643
 Alpha  occ. eigenvalues --  -14.42360 -14.42241 -14.41956 -14.41369 -14.40609
 Alpha  occ. eigenvalues --  -10.45650 -10.40988 -10.40011 -10.38588 -10.37977
 Alpha  occ. eigenvalues --  -10.37721 -10.37094 -10.36669 -10.35988 -10.35966
 Alpha  occ. eigenvalues --  -10.35274 -10.34719 -10.34387 -10.34344 -10.34101
 Alpha  occ. eigenvalues --  -10.33699 -10.32997 -10.31937 -10.31465 -10.31031
 Alpha  occ. eigenvalues --  -10.29839 -10.29803 -10.27941  -1.19681  -1.14302
 Alpha  occ. eigenvalues --   -1.13158  -1.12945  -1.12608  -1.10336  -1.09470
 Alpha  occ. eigenvalues --   -1.08621  -1.07893  -1.06303  -1.03605  -1.02512
 Alpha  occ. eigenvalues --   -1.01723  -1.00243  -0.99506  -0.98400  -0.98144
 Alpha  occ. eigenvalues --   -0.96330  -0.95558  -0.93931  -0.91077  -0.86859
 Alpha  occ. eigenvalues --   -0.85433  -0.85220  -0.84098  -0.83856  -0.83477
 Alpha  occ. eigenvalues --   -0.82033  -0.78922  -0.76044  -0.74708  -0.74146
 Alpha  occ. eigenvalues --   -0.73795  -0.73465  -0.73320  -0.72449  -0.69503
 Alpha  occ. eigenvalues --   -0.67557  -0.67415  -0.66611  -0.65873  -0.64489
 Alpha  occ. eigenvalues --   -0.64031  -0.63590  -0.63333  -0.62712  -0.61697
 Alpha  occ. eigenvalues --   -0.61413  -0.60558  -0.59695  -0.59556  -0.59255
 Alpha  occ. eigenvalues --   -0.58710  -0.58224  -0.57866  -0.57518  -0.57102
 Alpha  occ. eigenvalues --   -0.56430  -0.55910  -0.55503  -0.54524  -0.54409
 Alpha  occ. eigenvalues --   -0.53975  -0.53438  -0.53151  -0.52889  -0.52738
 Alpha  occ. eigenvalues --   -0.52467  -0.52176  -0.51826  -0.51655  -0.51147
 Alpha  occ. eigenvalues --   -0.50209  -0.49913  -0.49479  -0.49218  -0.48605
 Alpha  occ. eigenvalues --   -0.48562  -0.48367  -0.48078  -0.47733  -0.47301
 Alpha  occ. eigenvalues --   -0.47238  -0.46047  -0.45510  -0.44055  -0.42726
 Alpha  occ. eigenvalues --   -0.42234  -0.39869  -0.39673  -0.38525  -0.37321
 Alpha  occ. eigenvalues --   -0.37165  -0.37020  -0.35936  -0.35464  -0.34902
 Alpha  occ. eigenvalues --   -0.34730  -0.34657  -0.33104  -0.33005  -0.32664
 Alpha  occ. eigenvalues --   -0.32557  -0.32245  -0.31916  -0.31765  -0.31673
 Alpha  occ. eigenvalues --   -0.31166  -0.27732  -0.27001  -0.25301
 Alpha virt. eigenvalues --    0.03188   0.04570   0.06669   0.08097   0.08411
 Alpha virt. eigenvalues --    0.09088   0.09577   0.09709   0.11291   0.12264
 Alpha virt. eigenvalues --    0.12942   0.13119   0.14436   0.14623   0.14746

 Mulliken charges:
               1
     1  N   -0.311834
     2  C    0.180420
     3  C    0.042829
     4  N   -0.257381
     5  C    0.134226
     6  H    0.030647
     7  N   -0.266644
     8  C    0.121765
     9  H    0.023139
    10  N   -0.292648
    11  C    0.233161
    12  C    0.098889
    13  N   -0.044513
    14  H    0.107496
    15  H    0.088186
    16  H    0.028473
    17  H    0.035199
    18  H    0.027652
    19  N   -0.288218
    20  C    0.220651
    21  C    0.177264
    22  N   -0.075711
    23  H    0.092390
    24  H    0.115816
    25  N   -0.277453
    26  C    0.198043
    27  N   -0.104706
    28  H    0.123261
    29  C    0.125671
    30  O   -0.321042
    31  C    0.015900
    32  N   -0.221672
    33  C    0.116816
    34  H    0.027269
    35  H    0.021041
    36  H    0.025685
    37  H    0.019662
    38  H    0.054633
    39  H    0.066719
    40  H    0.074463
    41  H    0.031748
    42  C   -0.105719
    43  O   -0.266494
    44  C    0.184211
    45  H    0.134427
    46  N   -0.132671
    47  O   -0.350721
    48  C    0.355041
    49  H    0.046570
    50  C    0.174038
    51  C    0.030221
    52  N   -0.290035
    53  H    0.033487
    54  H    0.017183
    55  H    0.023827
    56  H    0.117928
    57  H    0.119526
    58  N   -0.067508
    59  C    0.131952
    60  C    0.219929
    61  N   -0.273442
    62  H    0.069639
    63  C    0.147331
    64  N   -0.301407
    65  H    0.024555
    66  C    0.113802
    67  N   -0.252890
    68  C    0.016725
    69  C    0.171347
    70  N   -0.288141
 Sum of Mulliken charges =  -0.00000

 Dipole moment (field-independent basis, Debye):
    X=              5.2078    Y=              5.7437    Z=              4.2735  Tot=              8.8529
 Quadrupole moment (field-independent basis, Debye-Ang):
   XX=           -137.8837   YY=           -229.2727   ZZ=           -256.8309
   XY=             16.6666   XZ=             16.8415   YZ=             -9.3260

 Normal termination of Gaussian 16 at Sat Jan 20 17:30:47 2018.
