 Gaussian 16, Revision A.03,
 Gaussian 16:  EM64L-G16RevA.03 25-Dec-2016

 ---------------------------------------
 #p wb97xd/cc-pvdz sp scf=(maxcycles=20)
 ---------------------------------------

 ------------------
 Base pair stacking
 ------------------
 Symbolic Z-matrix:
 Charge =  0 Multiplicity = 1

                         Standard orientation:
 ---------------------------------------------------------------------
 Center     Atomic      Atomic             Coordinates (Angstroms)
 Number     Number       Type             X           Y           Z
 ---------------------------------------------------------------------
      1          7           0       -4.322084    0.966976   -1.865353
      2          6           0       -5.664203    0.355827   -1.922193
      3          6           0       -2.147231    1.265268   -1.729862
      4          7           0       -2.705711    2.529666   -1.848737
      5          6           0       -3.993633    2.299344   -1.925603
      6          1           0       -4.756530    3.071626   -2.028111
      7          7           0       -0.603042   -0.503869   -1.509455
      8          6           0       -1.657353   -1.325740   -1.532678
      9          1           0       -1.422370   -2.385995   -1.449537
     10          7           0       -2.952272   -1.035904   -1.642660
     11          6           0       -3.131170    0.291959   -1.738591
     12          6           0       -0.816232    0.826511   -1.607991
     13          7           0        0.234931    1.648526   -1.585003
     14          1           0        0.124087    2.640510   -1.655052
     15          1           0        1.168547    1.301017   -1.497016
     16          1           0       -6.104216    0.594455   -2.787992
     17          1           0       -5.581870   -0.638007   -1.854038
     18          1           0       -6.219771    0.695394   -1.163216
     19          7           0       -5.684328   -1.169751    0.755992
     20          6           0       -4.315657   -1.261887    0.835514
     21          6           0       -6.595466   -2.277208    0.403774
     22          7           0       -1.407315   -3.141924    0.573261
     23          1           0       -0.424165   -2.999075    0.683902
     24          1           0       -1.706055   -4.061148    0.315385
     25          7           0       -3.579153   -2.370689    0.607092
     26          6           0       -2.286398   -2.146183    0.761984
     27          7           0       -1.753627   -0.929620    1.113629
     28          1           0       -0.752897   -0.849980    1.209418
     29          6           0       -2.492443    0.224708    1.353529
     30          8           0       -1.913480    1.272676    1.665478
     31          6           0       -3.882974   -0.000849    1.191001
     32          7           0       -4.958359    0.865527    1.331821
     33          6           0       -6.003339    0.130071    1.064774
     34          1           0       -7.033742    0.486922    1.078505
     35          1           0       -7.110900   -2.038310   -0.418455
     36          1           0       -6.061168   -3.103900    0.232358
     37          1           0       -7.229707   -2.442054    1.158342
     38          1           0        4.320906   -0.950390    0.894563
     39          1           0        4.219020   -1.109561    2.646395
     40          1           0        2.950356   -1.786717    1.624979
     41          1           0        3.419260    3.607732    2.142411
     42          6           0        2.887006    2.663650    2.025674
     43          8           0        0.738040    3.667605    1.991920
     44          6           0        1.458379    2.670843    1.943241
     45          1           0       -0.122853    1.388424    1.734754
     46          7           0        0.884949    1.423872    1.796587
     47          8           0        0.938989   -0.837395    1.594261
     48          6           0        1.535003    0.217311    1.724756
     49          1           0        4.635106    1.443047    2.016423
     50          6           0        3.549082    1.502714    1.958688
     51          6           0        3.649057   -0.971379    1.739695
     52          7           0        2.911214    0.292801    1.811656
     53          1           0        6.546890   -3.861737   -0.975076
     54          1           0        5.189163   -3.730834   -0.079782
     55          1           0        6.646064   -3.454085    0.602078
     56          1           0        3.674229    2.941108   -1.706341
     57          1           0        5.353092    2.639777   -1.733470
     58          7           0        4.426193    2.292848   -1.586079
     59          6           0        4.203890    1.022026   -1.244356
     60          6           0        4.838295   -1.207849   -0.708731
     61          7           0        3.582981   -1.645985   -0.517292
     62          1           0        1.662994   -0.931758   -0.581617
     63          6           0        2.709314   -0.661193   -0.716770
     64          7           0        2.929976    0.612271   -1.059070
     65          1           0        8.063383   -1.366812   -0.869173
     66          6           0        7.018695   -1.054817   -0.884397
     67          7           0        6.606641    0.155874   -1.170989
     68          6           0        5.225996    0.072591   -1.063259
     69          6           0        6.104078   -3.358549   -0.232968
     70          7           0        6.001661   -1.931440   -0.594727
 ---------------------------------------------------------------------

 SCF Done:  E(RwB97XD) =  -2048.66033444     A.U. after   15 cycles

 The electronic state is 1-A.
 Alpha  occ. eigenvalues --  -19.24825 -19.21044 -19.20586 -14.53262 -14.51125
 Alpha  occ. eigenvalues --  -14.49414 -14.48943 -14.48643 -14.46924 -14.46605
 Alpha  occ. eigenvalues --  -14.46507 -14.45993 -14.45050 -14.44801 -14.43296
 Alpha  occ. eigenvalues --  -14.41722 -14.41691 -14.41296 -14.41066 -14.40868
 Alpha  occ. eigenvalues --  -10.44385 -10.40986 -10.40820 -10.39151 -10.38515
 Alpha  occ. eigenvalues --  -10.38296 -10.37778 -10.36700 -10.36206 -10.36109
 Alpha  occ. eigenvalues --  -10.34613 -10.34458 -10.34089 -10.34077 -10.33570
 Alpha  occ. eigenvalues --  -10.33562 -10.33159 -10.31727 -10.31665 -10.30659
 Alpha  occ. eigenvalues --  -10.30157 -10.28826 -10.28502  -1.18499  -1.16094
 Alpha  occ. eigenvalues --   -1.13439  -1.12069  -1.11332  -1.11100  -1.10347
 Alpha  occ. eigenvalues --   -1.08743  -1.08112  -1.06072  -1.05625  -1.01635
 Alpha  occ. eigenvalues --   -1.01438  -1.01144  -0.99825  -0.98728  -0.98102
 Alpha  occ. eigenvalues --   -0.97101  -0.97011  -0.93350  -0.89928  -0.88501
 Alpha  occ. eigenvalues --   -0.86550  -0.84783  -0.84074  -0.83064  -0.82485
 Alpha  occ. eigenvalues --   -0.82100  -0.77924  -0.77692  -0.75874  -0.74994
 Alpha  occ. eigenvalues --   -0.73803  -0.73305  -0.72346  -0.71602  -0.71272
 Alpha  occ. eigenvalues --   -0.67658  -0.67572  -0.66774  -0.65626  -0.64994
 Alpha  occ. eigenvalues --   -0.64584  -0.63539  -0.63260  -0.62688  -0.62038
 Alpha  occ. eigenvalues --   -0.61655  -0.61284  -0.61034  -0.60272  -0.59047
 Alpha  occ. eigenvalues --   -0.58739  -0.58502  -0.58351  -0.57220  -0.56282
 Alpha  occ. eigenvalues --   -0.56026  -0.55691  -0.55622  -0.55148  -0.54698
 Alpha  occ. eigenvalues --   -0.54336  -0.54146  -0.53602  -0.53126  -0.52750
 Alpha  occ. eigenvalues --   -0.51995  -0.51841  -0.51072  -0.51028  -0.50756
 Alpha  occ. eigenvalues --   -0.50363  -0.50036  -0.49727  -0.49389  -0.49194
 Alpha  occ. eigenvalues --   -0.48481  -0.48378  -0.47864  -0.47160  -0.47019
 Alpha  occ. eigenvalues --   -0.46896  -0.45425  -0.45200  -0.44591  -0.41479
 Alpha  occ. eigenvalues --   -0.41367  -0.40996  -0.39195  -0.38752  -0.38285
 Alpha  occ. eigenvalues --   -0.38185  -0.37196  -0.36228  -0.35383  -0.35117
 Alpha  occ. eigenvalues --   -0.34619  -0.34343  -0.34048  -0.33456  -0.33084
 Alpha  occ. eigenvalues --   -0.32453  -0.32288  -0.31889  -0.31033  -0.30848
 Alpha  occ. eigenvalues --   -0.30360  -0.30210  -0.26716  -0.25169
 Alpha virt. eigenvalues --    0.02656   0.04573   0.05819   0.06849   0.08533
 Alpha virt. eigenvalues --    0.08853   0.09518   0.09555   0.11294   0.12495
 Alpha virt. eigenvalues --    0.13155   0.13555   0.14224   0.14569   0.14660

 Mulliken charges:
               1
     1  N   -0.299625
     2  C    0.198294
     3  C    0.068715
     4  N   -0.258658
     5  C    0.149503
     6  H    0.029134
     7  N   -0.276384
     8  C    0.128746
     9  H    0.003244
    10  N   -0.267807
    11  C    0.219936
    12  C    0.072612
    13  N   -0.062837
    14  H    0.111872
    15  H    0.082449
    16  H    0.021956
    17  H    0.023308
    18  H    0.018852
    19  N   -0.295204
    20  C    0.236582
    21  C    0.183726
    22  N   -0.085899
    23  H    0.124172
    24  H    0.119971
    25  N   -0.252263
    26  C    0.119695
    27  N   -0.093796
    28  H    0.122833
    29  C    0.169642
    30  O   -0.318079
    31  C    0.001927
    32  N   -0.212796
    33  C    0.078600
    34  H    0.027042
    35  H    0.016367
    36  H    0.034173
    37  H    0.028085
    38  H    0.029816
    39  H    0.028217
    40  H    0.073960
    41  H    0.023032
    42  C   -0.106632
    43  O   -0.268047
    44  C    0.175517
    45  H    0.132919
    46  N   -0.124958
    47  O   -0.343358
    48  C    0.327896
    49  H    0.046013
    50  C    0.165179
    51  C    0.094904
    52  N   -0.276988
    53  H    0.036637
    54  H    0.041330
    55  H    0.033123
    56  H    0.121200
    57  H    0.121433
    58  N   -0.061142
    59  C    0.099866
    60  C    0.222992
    61  N   -0.276116
    62  H    0.042466
    63  C    0.132889
    64  N   -0.298314
    65  H    0.041443
    66  C    0.139965
    67  N   -0.253561
    68  C    0.035129
    69  C    0.179301
    70  N   -0.304198
 Sum of Mulliken charges =  -0.00000

 Dipole moment (field-independent basis, Debye):
    X=              6.5561    Y=             -7.7178    Z=             -2.3410  Tot=             10.3936
 Quadrupole moment (field-independent basis, Debye-Ang):
   XX=           -151.0128   YY=           -233.2854   ZZ=           -253.6472
   XY=              3.1570   XZ=             14.7537   YZ=            -17.7645

 Normal termination of Gaussian 16 at Sat Jan 20 22:07:11 2018.
