 Gaussian 16, Revision A.03,
 Gaussian 16:  EM64L-G16RevA.03 25-Dec-2016

 ---------------------------------------
 #p wb97xd/cc-pvdz sp scf=(maxcycles=20)
 ---------------------------------------

 ------------------
 Base pair stacking
 ------------------
 Symbolic Z-matrix:
 Charge =  0 Multiplicity = 1

                         Standard orientation:
 ---------------------------------------------------------------------
 Center     Atomic      Atomic             Coordinates (Angstroms)
 Number     Number       Type             X           Y           Z
 ---------------------------------------------------------------------
      1          7           0       -6.847178   -1.014112    0.332584
      2          6           0       -8.151774   -0.330764    0.237396
      3          6           0       -4.706513   -1.438796    0.605496
      4          7           0       -5.307790   -2.652543    0.305471
      5          6           0       -6.573397   -2.348098    0.153055
      6          1           0       -7.358035   -3.064152   -0.093037
      7          7           0       -3.110405    0.213726    1.138938
      8          6           0       -4.122097    1.087672    1.122763
      9          1           0       -3.848790    2.119443    1.339584
     10          7           0       -5.414634    0.879433    0.880128
     11          6           0       -5.642730   -0.419681    0.625773
     12          6           0       -3.372527   -1.085824    0.879050
     13          7           0       -2.363958   -1.959729    0.894725
     14          1           0       -2.511798   -2.931605    0.708110
     15          1           0       -1.426726   -1.672935    1.093426
     16          1           0       -8.783090   -0.719737    0.908454
     17          1           0       -8.032078    0.644650    0.420076
     18          1           0       -8.527901   -0.452417   -0.681151
     19          7           0       -3.066824    1.759993   -1.506552
     20          6           0       -1.714540    1.767343   -1.262998
     21          6           0       -3.994287    2.869315   -1.206714
     22          7           0        1.119776    3.388559   -0.079764
     23          1           0        2.096039    3.194562    0.012563
     24          1           0        0.802736    4.282431    0.238345
     25          7           0       -1.011518    2.781052   -0.713278
     26          6           0        0.273029    2.491000   -0.606375
     27          7           0        0.828601    1.299925   -1.006597
     28          1           0        1.820778    1.165151   -0.886631
     29          6           0        0.124348    0.242937   -1.574658
     30          8           0        0.721704   -0.790135   -1.901251
     31          6           0       -1.256977    0.539745   -1.695949
     32          7           0       -2.301001   -0.222959   -2.201137
     33          6           0       -3.352252    0.539617   -2.068590
     34          1           0       -4.363626    0.260022   -2.365579
     35          1           0       -4.694354    2.556661   -0.565656
     36          1           0       -3.484799    3.625983   -0.799108
     37          1           0       -4.430217    3.178974   -2.051039
     38          1           0        6.684028    0.870908    0.567643
     39          1           0        6.996343    1.274246   -1.118895
     40          1           0        5.550860    1.891734   -0.318477
     41          1           0        5.932351   -3.401086   -1.513624
     42          6           0        5.421867   -2.447256   -1.380050
     43          8           0        3.288784   -3.295544   -1.977925
     44          6           0        4.013665   -2.366908   -1.621598
     45          1           0        2.474352   -1.018777   -1.584243
     46          7           0        3.467128   -1.115005   -1.423408
     47          8           0        3.554212    1.088339   -0.880355
     48          6           0        4.125888    0.022664   -1.029347
     49          1           0        7.163091   -1.363034   -0.798313
     50          6           0        6.091786   -1.354852   -0.994736
     51          6           0        6.227328    1.053359   -0.393706
     52          7           0        5.481184   -0.135161   -0.816121
     53          1           0        4.052321    3.056997    2.953743
     54          1           0        2.931477    3.228827    1.780592
     55          1           0        4.498268    2.999310    1.384918
     56          1           0        0.924998   -3.503444    1.455087
     57          1           0        2.560313   -3.343139    1.913484
     58          7           0        1.700030   -2.903309    1.653330
     59          6           0        1.592212   -1.575390    1.574588
     60          6           0        2.385674    0.663213    1.718672
     61          7           0        1.217934    1.226247    1.366778
     62          1           0       -0.682917    0.662469    0.847638
     63          6           0        0.298259    0.290573    1.139633
     64          7           0        0.404290   -1.039917    1.217962
     65          1           0        5.492293    0.538966    2.605034
     66          6           0        4.464373    0.311072    2.321502
     67          7           0        3.968723   -0.898319    2.224653
     68          6           0        2.651339   -0.689356    1.843119
     69          6           0        3.778166    2.763974    2.037793
     70          7           0        3.561565    1.304170    2.029229
 ---------------------------------------------------------------------

 SCF Done:  E(RwB97XD) =  -2048.70543024     A.U. after   15 cycles

 The electronic state is 1-A.
 Alpha  occ. eigenvalues --  -19.26072 -19.21909 -19.20480 -14.52564 -14.51529
 Alpha  occ. eigenvalues --  -14.49863 -14.48248 -14.47894 -14.47012 -14.46256
 Alpha  occ. eigenvalues --  -14.45944 -14.44561 -14.43301 -14.43166 -14.42486
 Alpha  occ. eigenvalues --  -14.42384 -14.42230 -14.41976 -14.41173 -14.40592
 Alpha  occ. eigenvalues --  -10.45627 -10.40742 -10.40028 -10.38828 -10.37984
 Alpha  occ. eigenvalues --  -10.37700 -10.37216 -10.36506 -10.36154 -10.35966
 Alpha  occ. eigenvalues --  -10.35117 -10.34897 -10.34564 -10.34253 -10.34063
 Alpha  occ. eigenvalues --  -10.34020 -10.33004 -10.31888 -10.31495 -10.31009
 Alpha  occ. eigenvalues --  -10.29662 -10.29608 -10.27918  -1.19673  -1.14341
 Alpha  occ. eigenvalues --   -1.13153  -1.12962  -1.12469  -1.10321  -1.09445
 Alpha  occ. eigenvalues --   -1.08539  -1.08054  -1.06130  -1.03775  -1.02536
 Alpha  occ. eigenvalues --   -1.01594  -1.00213  -0.99410  -0.98396  -0.98014
 Alpha  occ. eigenvalues --   -0.96268  -0.95733  -0.93781  -0.91060  -0.86948
 Alpha  occ. eigenvalues --   -0.85499  -0.85088  -0.84090  -0.83742  -0.83362
 Alpha  occ. eigenvalues --   -0.81876  -0.78907  -0.76225  -0.74548  -0.73994
 Alpha  occ. eigenvalues --   -0.73917  -0.73450  -0.73347  -0.72271  -0.69667
 Alpha  occ. eigenvalues --   -0.67415  -0.67205  -0.66596  -0.66021  -0.64486
 Alpha  occ. eigenvalues --   -0.63916  -0.63578  -0.63376  -0.62718  -0.61465
 Alpha  occ. eigenvalues --   -0.61263  -0.60808  -0.59884  -0.59567  -0.59037
 Alpha  occ. eigenvalues --   -0.58666  -0.58127  -0.57772  -0.57450  -0.56822
 Alpha  occ. eigenvalues --   -0.56231  -0.55958  -0.55269  -0.54786  -0.54423
 Alpha  occ. eigenvalues --   -0.54163  -0.53362  -0.53105  -0.52847  -0.52651
 Alpha  occ. eigenvalues --   -0.52457  -0.52235  -0.51824  -0.51651  -0.51031
 Alpha  occ. eigenvalues --   -0.50085  -0.49879  -0.49473  -0.49112  -0.48532
 Alpha  occ. eigenvalues --   -0.48485  -0.48203  -0.48082  -0.47642  -0.47556
 Alpha  occ. eigenvalues --   -0.47242  -0.45774  -0.45661  -0.44056  -0.43040
 Alpha  occ. eigenvalues --   -0.42108  -0.40316  -0.39649  -0.38437  -0.37369
 Alpha  occ. eigenvalues --   -0.37182  -0.37081  -0.36138  -0.35419  -0.34686
 Alpha  occ. eigenvalues --   -0.34584  -0.34414  -0.33427  -0.33107  -0.32732
 Alpha  occ. eigenvalues --   -0.32531  -0.32211  -0.31887  -0.31719  -0.31553
 Alpha  occ. eigenvalues --   -0.31344  -0.28048  -0.26883  -0.25205
 Alpha virt. eigenvalues --    0.03190   0.04623   0.06793   0.08023   0.08614
 Alpha virt. eigenvalues --    0.09124   0.09739   0.09841   0.11152   0.11829
 Alpha virt. eigenvalues --    0.13065   0.13103   0.14403   0.14556   0.14821

 Mulliken charges:
               1
     1  N   -0.312478
     2  C    0.180057
     3  C    0.051561
     4  N   -0.256890
     5  C    0.133312
     6  H    0.029959
     7  N   -0.266942
     8  C    0.127338
     9  H    0.022133
    10  N   -0.293049
    11  C    0.232077
    12  C    0.099987
    13  N   -0.046751
    14  H    0.107830
    15  H    0.087827
    16  H    0.028469
    17  H    0.034442
    18  H    0.027236
    19  N   -0.289838
    20  C    0.237095
    21  C    0.171129
    22  N   -0.072639
    23  H    0.101939
    24  H    0.111398
    25  N   -0.285275
    26  C    0.195674
    27  N   -0.113339
    28  H    0.122045
    29  C    0.129733
    30  O   -0.321286
    31  C    0.021317
    32  N   -0.221286
    33  C    0.112613
    34  H    0.025188
    35  H    0.023195
    36  H    0.025002
    37  H    0.017939
    38  H    0.048897
    39  H    0.066774
    40  H    0.073785
    41  H    0.031231
    42  C   -0.106363
    43  O   -0.266501
    44  C    0.182180
    45  H    0.134638
    46  N   -0.131402
    47  O   -0.346974
    48  C    0.350449
    49  H    0.046345
    50  C    0.176977
    51  C    0.032880
    52  N   -0.285374
    53  H    0.034866
    54  H    0.021914
    55  H    0.015442
    56  H    0.119479
    57  H    0.119580
    58  N   -0.066698
    59  C    0.126968
    60  C    0.227598
    61  N   -0.289280
    62  H    0.048133
    63  C    0.175895
    64  N   -0.304476
    65  H    0.029721
    66  C    0.108178
    67  N   -0.250292
    68  C    0.008929
    69  C    0.180727
    70  N   -0.290944
 Sum of Mulliken charges =  -0.00000

 Dipole moment (field-independent basis, Debye):
    X=              5.4236    Y=              5.7910    Z=              4.2176  Tot=              8.9855
 Quadrupole moment (field-independent basis, Debye-Ang):
   XX=           -140.2288   YY=           -228.7659   ZZ=           -257.7180
   XY=             15.4009   XZ=             13.8585   YZ=             -9.5172

 Normal termination of Gaussian 16 at Sat Jan 20 16:42:46 2018.
