 Gaussian 16, Revision A.03,
 Gaussian 16:  EM64L-G16RevA.03 25-Dec-2016

 ---------------------------------------
 #p wb97xd/cc-pvdz sp scf=(maxcycles=20)
 ---------------------------------------

 ------------------
 Base pair stacking
 ------------------
 Symbolic Z-matrix:
 Charge =  0 Multiplicity = 1

                         Standard orientation:
 ---------------------------------------------------------------------
 Center     Atomic      Atomic             Coordinates (Angstroms)
 Number     Number       Type             X           Y           Z
 ---------------------------------------------------------------------
      1          7           0        4.259193   -1.332315   -1.960852
      2          6           0        5.583244   -0.772493   -2.294748
      3          6           0        2.102075   -1.571218   -1.604394
      4          7           0        2.678372   -2.804808   -1.338194
      5          6           0        3.954885   -2.611506   -1.563604
      6          1           0        4.726200   -3.374499   -1.454717
      7          7           0        0.537419    0.172058   -1.879730
      8          6           0        1.571835    0.941875   -2.233206
      9          1           0        1.320557    1.971023   -2.486120
     10          7           0        2.863996    0.632726   -2.320749
     11          6           0        3.063994   -0.653578   -1.989298
     12          6           0        0.771549   -1.117459   -1.551982
     13          7           0       -0.259732   -1.887478   -1.198868
     14          1           0       -0.132993   -2.847898   -0.948362
     15          1           0       -1.193679   -1.530808   -1.172708
     16          1           0        5.977999   -1.280517   -3.060416
     17          1           0        5.484809    0.189071   -2.549383
     18          1           0        6.187880   -0.845296   -1.501583
     19          7           0        5.726076    1.322168    0.714973
     20          6           0        4.362683    1.441623    0.837170
     21          6           0        6.648450    2.412915    0.340517
     22          7           0        1.486765    3.381832    0.674465
     23          1           0        0.504758    3.258341    0.814668
     24          1           0        1.796195    4.296271    0.412236
     25          7           0        3.642363    2.566456    0.637301
     26          6           0        2.350654    2.367354    0.830843
     27          7           0        1.804137    1.159859    1.192492
     28          1           0        0.805410    1.100009    1.318699
     29          6           0        2.526187   -0.010601    1.403522
     30          8           0        1.935752   -1.048372    1.727796
     31          6           0        3.915390    0.187607    1.199334
     32          7           0        4.976632   -0.701244    1.302439
     33          6           0        6.027748    0.014378    1.007061
     34          1           0        7.050565   -0.363407    0.987161
     35          1           0        7.133363    2.168351   -0.498442
     36          1           0        6.126172    3.251249    0.189934
     37          1           0        7.308824    2.560474    1.076004
     38          1           0       -4.272548    1.305274    1.161087
     39          1           0       -4.113618    1.452223    2.909743
     40          1           0       -2.863352    2.109356    1.853159
     41          1           0       -3.426504   -3.277369    2.357016
     42          6           0       -2.878870   -2.343619    2.228773
     43          8           0       -0.752975   -3.390810    2.123554
     44          6           0       -1.453892   -2.379351    2.102264
     45          1           0        0.146103   -1.128138    1.851691
     46          7           0       -0.859826   -1.143465    1.944408
     47          8           0       -0.873737    1.119570    1.755496
     48          6           0       -1.486944    0.076455    1.898896
     49          1           0       -4.601062   -1.087736    2.279765
     50          6           0       -3.518777   -1.169112    2.188233
     51          6           0       -3.574751    1.307731    1.985181
     52          7           0       -2.861087    0.028427    2.027822
     53          1           0       -6.637019    3.516398   -2.037931
     54          1           0       -5.228165    3.685770   -1.232632
     55          1           0       -6.637976    3.646048   -0.411095
     56          1           0       -3.673479   -3.150723   -0.684268
     57          1           0       -5.356921   -2.875700   -0.706634
     58          7           0       -4.430349   -2.499150   -0.736643
     59          6           0       -4.214736   -1.186282   -0.841855
     60          6           0       -4.862648    1.095919   -1.024936
     61          7           0       -3.607601    1.573241   -1.062968
     62          1           0       -1.680326    0.878227   -1.006884
     63          6           0       -2.726949    0.577777   -0.982995
     64          7           0       -2.940910   -0.737778   -0.877570
     65          1           0       -8.094194    1.191994   -1.033244
     66          6           0       -7.045967    0.892703   -1.009056
     67          7           0       -6.626459   -0.344970   -0.909755
     68          6           0       -5.243888   -0.230319   -0.918686
     69          6           0       -6.142589    3.283372   -1.200540
     70          7           0       -6.032053    1.816425   -1.082924
 ---------------------------------------------------------------------

 SCF Done:  E(RwB97XD) =  -2048.74842379     A.U. after   15 cycles

 The electronic state is 1-A.
 Alpha  occ. eigenvalues --  -19.25159 -19.21390 -19.20690 -14.52812 -14.51559
 Alpha  occ. eigenvalues --  -14.49438 -14.48615 -14.48399 -14.47144 -14.46902
 Alpha  occ. eigenvalues --  -14.46753 -14.45656 -14.44900 -14.44851 -14.42921
 Alpha  occ. eigenvalues --  -14.42109 -14.41709 -14.41247 -14.40921 -14.40789
 Alpha  occ. eigenvalues --  -10.44721 -10.41352 -10.40484 -10.39482 -10.38407
 Alpha  occ. eigenvalues --  -10.38246 -10.37633 -10.37056 -10.36334 -10.35845
 Alpha  occ. eigenvalues --  -10.34796 -10.34097 -10.34067 -10.33907 -10.33729
 Alpha  occ. eigenvalues --  -10.33397 -10.33367 -10.33223 -10.31538 -10.30602
 Alpha  occ. eigenvalues --  -10.30399 -10.28593 -10.28559  -1.18701  -1.15584
 Alpha  occ. eigenvalues --   -1.13405  -1.12396  -1.11089  -1.11063  -1.09885
 Alpha  occ. eigenvalues --   -1.08705  -1.08450  -1.05416  -1.05346  -1.01753
 Alpha  occ. eigenvalues --   -1.01271  -1.00817  -0.99843  -0.98812  -0.97456
 Alpha  occ. eigenvalues --   -0.97104  -0.96710  -0.93103  -0.90295  -0.88068
 Alpha  occ. eigenvalues --   -0.86192  -0.84629  -0.83830  -0.83056  -0.82668
 Alpha  occ. eigenvalues --   -0.82183  -0.78174  -0.77431  -0.75328  -0.74999
 Alpha  occ. eigenvalues --   -0.73794  -0.73007  -0.72632  -0.71224  -0.70822
 Alpha  occ. eigenvalues --   -0.67618  -0.67223  -0.66415  -0.65867  -0.64639
 Alpha  occ. eigenvalues --   -0.64590  -0.63396  -0.62885  -0.62773  -0.62009
 Alpha  occ. eigenvalues --   -0.60944  -0.60780  -0.60532  -0.59818  -0.58955
 Alpha  occ. eigenvalues --   -0.58867  -0.58472  -0.57621  -0.56677  -0.55869
 Alpha  occ. eigenvalues --   -0.55799  -0.55673  -0.55532  -0.54760  -0.54270
 Alpha  occ. eigenvalues --   -0.53954  -0.53862  -0.53346  -0.53208  -0.53076
 Alpha  occ. eigenvalues --   -0.52316  -0.51632  -0.51549  -0.50697  -0.50469
 Alpha  occ. eigenvalues --   -0.50420  -0.50133  -0.49683  -0.49305  -0.48978
 Alpha  occ. eigenvalues --   -0.48825  -0.48220  -0.48167  -0.47554  -0.47148
 Alpha  occ. eigenvalues --   -0.46988  -0.45749  -0.45565  -0.45189  -0.42634
 Alpha  occ. eigenvalues --   -0.41437  -0.41089  -0.38943  -0.38225  -0.37986
 Alpha  occ. eigenvalues --   -0.37738  -0.37420  -0.37065  -0.35415  -0.35127
 Alpha  occ. eigenvalues --   -0.34829  -0.34132  -0.33676  -0.33548  -0.33170
 Alpha  occ. eigenvalues --   -0.32799  -0.32522  -0.32038  -0.31111  -0.30882
 Alpha  occ. eigenvalues --   -0.30693  -0.30564  -0.26238  -0.25650
 Alpha virt. eigenvalues --    0.02646   0.04669   0.06245   0.07749   0.08575
 Alpha virt. eigenvalues --    0.09071   0.09609   0.10141   0.10776   0.12233
 Alpha virt. eigenvalues --    0.13279   0.13708   0.14058   0.14548   0.14798

 Mulliken charges:
               1
     1  N   -0.300792
     2  C    0.185499
     3  C    0.056275
     4  N   -0.252520
     5  C    0.153348
     6  H    0.028737
     7  N   -0.291551
     8  C    0.124252
     9  H    0.007640
    10  N   -0.276842
    11  C    0.233466
    12  C    0.079535
    13  N   -0.063146
    14  H    0.117113
    15  H    0.085473
    16  H    0.023726
    17  H    0.029962
    18  H    0.016985
    19  N   -0.307114
    20  C    0.259190
    21  C    0.183213
    22  N   -0.118532
    23  H    0.120275
    24  H    0.118866
    25  N   -0.304446
    26  C    0.236015
    27  N   -0.134072
    28  H    0.119417
    29  C    0.187960
    30  O   -0.318166
    31  C   -0.017003
    32  N   -0.221133
    33  C    0.099847
    34  H    0.027038
    35  H    0.021195
    36  H    0.033220
    37  H    0.026473
    38  H    0.057251
    39  H    0.052168
    40  H    0.075396
    41  H    0.019161
    42  C   -0.109515
    43  O   -0.270127
    44  C    0.170252
    45  H    0.132719
    46  N   -0.123865
    47  O   -0.349086
    48  C    0.339988
    49  H    0.045353
    50  C    0.167506
    51  C    0.051015
    52  N   -0.275535
    53  H    0.035300
    54  H    0.041515
    55  H    0.030508
    56  H    0.123134
    57  H    0.118843
    58  N   -0.054835
    59  C    0.084849
    60  C    0.205223
    61  N   -0.256061
    62  H    0.033453
    63  C    0.159673
    64  N   -0.304496
    65  H    0.040320
    66  C    0.140906
    67  N   -0.257506
    68  C    0.035002
    69  C    0.179369
    70  N   -0.307281
 Sum of Mulliken charges =  -0.00000

 Dipole moment (field-independent basis, Debye):
    X=             -6.4779    Y=              7.6894    Z=             -1.4706  Tot=             10.1613
 Quadrupole moment (field-independent basis, Debye-Ang):
   XX=           -151.6745   YY=           -228.3529   ZZ=           -253.5954
   XY=              0.3098   XZ=            -15.1311   YZ=             12.6737

 Normal termination of Gaussian 16 at Sat Jan 20 09:17:44 2018.
