 Gaussian 16, Revision A.03,
 Gaussian 16:  EM64L-G16RevA.03 25-Dec-2016

 ---------------------------------------
 #p wb97xd/cc-pvdz sp scf=(maxcycles=20)
 ---------------------------------------

 ------------------
 Base pair stacking
 ------------------
 Symbolic Z-matrix:
 Charge =  0 Multiplicity = 1

                         Standard orientation:
 ---------------------------------------------------------------------
 Center     Atomic      Atomic             Coordinates (Angstroms)
 Number     Number       Type             X           Y           Z
 ---------------------------------------------------------------------
      1          7           0       -6.094083   -1.485540    0.638587
      2          6           0       -7.431543   -0.966417    0.984587
      3          6           0       -3.919214   -1.789108    0.515735
      4          7           0       -4.492359   -2.752944   -0.301124
      5          6           0       -5.779691   -2.531475   -0.194421
      6          1           0       -6.552183   -3.106244   -0.706122
      7          7           0       -2.353359   -0.465712    1.681771
      8          6           0       -3.400275    0.207609    2.169809
      9          1           0       -3.153352    1.023535    2.847718
     10          7           0       -4.700309    0.025210    1.947227
     11          6           0       -4.893995   -1.000465    1.101712
     12          6           0       -2.581402   -1.492215    0.833627
     13          7           0       -1.537640   -2.165542    0.345402
     14          1           0       -1.659497   -2.932534   -0.285552
     15          1           0       -0.598820   -1.926410    0.593523
     16          1           0       -7.969167   -1.689400    1.418688
     17          1           0       -7.338223   -0.197047    1.615850
     18          1           0       -7.897339   -0.659731    0.154546
     19          7           0       -3.890903    2.162455   -1.093727
     20          6           0       -2.522560    2.174738   -0.969016
     21          6           0       -4.801375    3.221560   -0.614127
     22          7           0        0.385738    3.738819    0.106699
     23          1           0        1.368583    3.556764    0.095660
     24          1           0        0.087438    4.593892    0.531638
     25          7           0       -1.785826    3.148577   -0.392049
     26          6           0       -0.493493    2.875698   -0.424227
     27          7           0        0.038667    1.736825   -0.978554
     28          1           0        1.039105    1.611566   -0.958134
     29          6           0       -0.700399    0.721528   -1.577571
     30          8           0       -0.121997   -0.265816   -2.048029
     31          6           0       -2.090474    1.000500   -1.550634
     32          7           0       -3.165907    0.265813   -2.030808
     33          6           0       -4.210335    0.992261   -1.738134
     34          1           0       -5.240610    0.720488   -1.970412
     35          1           0       -5.438261    2.838539    0.054056
     36          1           0       -4.266898    3.948404   -0.184822
     37          1           0       -5.313884    3.597321   -1.385459
     38          1           0        6.015020    1.284312    0.034755
     39          1           0        6.172210    1.844129   -1.628538
     40          1           0        4.795892    2.358078   -0.652332
     41          1           0        5.133240   -2.796845   -2.355477
     42          6           0        4.625242   -1.869280   -2.091291
     43          8           0        2.457909   -2.702536   -2.576560
     44          6           0        3.200351   -1.795541   -2.201129
     45          1           0        1.654419   -0.487172   -1.906861
     46          7           0        2.658597   -0.577722   -1.842441
     47          8           0        2.767096    1.569007   -1.109648
     48          6           0        3.336016    0.532698   -1.404684
     49          1           0        6.398044   -0.807466   -1.566370
     50          6           0        5.313544   -0.802933   -1.667331
     51          6           0        5.472993    1.543527   -0.862507
     52          7           0        4.706633    0.383298   -1.325432
     53          1           0        4.822989    1.783450    4.156374
     54          1           0        3.576837    2.400069    3.302557
     55          1           0        5.101497    2.538375    2.736536
     56          1           0        1.860011   -3.474723   -0.160783
     57          1           0        3.525701   -3.407265    0.201197
     58          7           0        2.623222   -2.978231    0.252911
     59          6           0        2.446446   -1.796473    0.847373
     60          6           0        3.146556    0.151255    2.021235
     61          7           0        1.923257    0.703499    2.075732
     62          1           0        0.005977    0.290581    1.480614
     63          6           0        1.028782   -0.083767    1.481564
     64          7           0        1.203859   -1.267721    0.885590
     65          1           0        6.332313   -0.100595    2.510812
     66          6           0        5.291661   -0.255668    2.224551
     67          7           0        4.844879   -1.304853    1.578590
     68          6           0        3.486118   -1.059564    1.443172
     69          6           0        4.466662    1.949472    3.236881
     70          7           0        4.317992    0.665635    2.524370
 ---------------------------------------------------------------------

 SCF Done:  E(RwB97XD) =  -2048.75125976     A.U. after   15 cycles

 The electronic state is 1-A.
 Alpha  occ. eigenvalues --  -19.25892 -19.21934 -19.20685 -14.52410 -14.51985
 Alpha  occ. eigenvalues --  -14.48990 -14.48705 -14.47815 -14.46964 -14.46875
 Alpha  occ. eigenvalues --  -14.46660 -14.44998 -14.43574 -14.43441 -14.42297
 Alpha  occ. eigenvalues --  -14.42008 -14.41493 -14.41172 -14.40826 -14.40387
 Alpha  occ. eigenvalues --  -10.45497 -10.41233 -10.40188 -10.39076 -10.38269
 Alpha  occ. eigenvalues --  -10.37707 -10.37521 -10.36603 -10.35545 -10.35437
 Alpha  occ. eigenvalues --  -10.35134 -10.34300 -10.34200 -10.33665 -10.33513
 Alpha  occ. eigenvalues --  -10.33303 -10.33272 -10.31990 -10.31350 -10.30880
 Alpha  occ. eigenvalues --  -10.30668 -10.28631 -10.28071  -1.19459  -1.14675
 Alpha  occ. eigenvalues --   -1.13223  -1.13115  -1.11521  -1.10557  -1.09296
 Alpha  occ. eigenvalues --   -1.08581  -1.08428  -1.05173  -1.03951  -1.02525
 Alpha  occ. eigenvalues --   -1.00570  -1.00412  -0.99745  -0.98540  -0.97121
 Alpha  occ. eigenvalues --   -0.96521  -0.96011  -0.92826  -0.90949  -0.87074
 Alpha  occ. eigenvalues --   -0.85463  -0.84153  -0.84042  -0.83745  -0.82536
 Alpha  occ. eigenvalues --   -0.82383  -0.78812  -0.76356  -0.74607  -0.74127
 Alpha  occ. eigenvalues --   -0.73646  -0.73363  -0.73053  -0.71215  -0.69704
 Alpha  occ. eigenvalues --   -0.67377  -0.66527  -0.66453  -0.66038  -0.64451
 Alpha  occ. eigenvalues --   -0.63749  -0.63515  -0.62847  -0.62658  -0.61744
 Alpha  occ. eigenvalues --   -0.60642  -0.60414  -0.59815  -0.59416  -0.58869
 Alpha  occ. eigenvalues --   -0.58638  -0.58365  -0.56888  -0.56715  -0.56349
 Alpha  occ. eigenvalues --   -0.55977  -0.55550  -0.54804  -0.54728  -0.54355
 Alpha  occ. eigenvalues --   -0.53654  -0.53551  -0.53001  -0.52914  -0.52835
 Alpha  occ. eigenvalues --   -0.52538  -0.52212  -0.52000  -0.51022  -0.50412
 Alpha  occ. eigenvalues --   -0.50148  -0.49544  -0.49491  -0.49328  -0.48892
 Alpha  occ. eigenvalues --   -0.48823  -0.48360  -0.47850  -0.47507  -0.47420
 Alpha  occ. eigenvalues --   -0.47126  -0.45664  -0.45110  -0.43946  -0.43651
 Alpha  occ. eigenvalues --   -0.41324  -0.40111  -0.39455  -0.37323  -0.37273
 Alpha  occ. eigenvalues --   -0.37249  -0.37166  -0.36884  -0.35999  -0.34289
 Alpha  occ. eigenvalues --   -0.34114  -0.33751  -0.33557  -0.33459  -0.33247
 Alpha  occ. eigenvalues --   -0.32650  -0.32342  -0.31915  -0.31891  -0.31100
 Alpha  occ. eigenvalues --   -0.30595  -0.29066  -0.25845  -0.25407
 Alpha virt. eigenvalues --    0.03105   0.04678   0.07669   0.07826   0.08245
 Alpha virt. eigenvalues --    0.08961   0.09766   0.10688   0.10966   0.11891
 Alpha virt. eigenvalues --    0.13250   0.13886   0.14326   0.14559   0.15088

 Mulliken charges:
               1
     1  N   -0.310334
     2  C    0.179788
     3  C    0.059797
     4  N   -0.251467
     5  C    0.128359
     6  H    0.026234
     7  N   -0.290214
     8  C    0.134516
     9  H    0.013090
    10  N   -0.291141
    11  C    0.229254
    12  C    0.098685
    13  N   -0.044055
    14  H    0.112134
    15  H    0.090692
    16  H    0.027300
    17  H    0.033502
    18  H    0.021954
    19  N   -0.305595
    20  C    0.256952
    21  C    0.181247
    22  N   -0.119431
    23  H    0.114896
    24  H    0.117543
    25  N   -0.308867
    26  C    0.240954
    27  N   -0.146678
    28  H    0.122664
    29  C    0.182214
    30  O   -0.325434
    31  C   -0.015638
    32  N   -0.221120
    33  C    0.129822
    34  H    0.020875
    35  H    0.028490
    36  H    0.028426
    37  H    0.021892
    38  H    0.049729
    39  H    0.061674
    40  H    0.073934
    41  H    0.024971
    42  C   -0.109550
    43  O   -0.279285
    44  C    0.156066
    45  H    0.135300
    46  N   -0.117202
    47  O   -0.343738
    48  C    0.342688
    49  H    0.045167
    50  C    0.188571
    51  C    0.041893
    52  N   -0.279819
    53  H    0.033632
    54  H    0.040613
    55  H    0.021105
    56  H    0.127413
    57  H    0.116125
    58  N   -0.044227
    59  C    0.097703
    60  C    0.245564
    61  N   -0.272928
    62  H    0.036062
    63  C    0.156934
    64  N   -0.302262
    65  H    0.034031
    66  C    0.114331
    67  N   -0.252914
    68  C    0.011982
    69  C    0.181913
    70  N   -0.306784
 Sum of Mulliken charges =  -0.00000

 Dipole moment (field-independent basis, Debye):
    X=              6.3578    Y=              6.2008    Z=              3.6650  Tot=              9.6075
 Quadrupole moment (field-independent basis, Debye-Ang):
   XX=           -145.3189   YY=           -224.3005   ZZ=           -257.0663
   XY=              8.3672   XZ=              8.6972   YZ=             -0.5846

 Normal termination of Gaussian 16 at Sat Jan 20 10:18:43 2018.
