 Gaussian 16, Revision A.03,
 Gaussian 16:  EM64L-G16RevA.03 25-Dec-2016

 ---------------------------------------
 #p wb97xd/cc-pvdz sp scf=(maxcycles=20)
 ---------------------------------------

 ------------------
 Base pair stacking
 ------------------
 Symbolic Z-matrix:
 Charge =  0 Multiplicity = 1

                         Standard orientation:
 ---------------------------------------------------------------------
 Center     Atomic      Atomic             Coordinates (Angstroms)
 Number     Number       Type             X           Y           Z
 ---------------------------------------------------------------------
      1          7           0       -6.881333   -1.045114    0.313968
      2          6           0       -8.195432   -0.373645    0.330321
      3          6           0       -4.732889   -1.475167    0.505199
      4          7           0       -5.321397   -2.639873    0.034193
      5          6           0       -6.592194   -2.334167   -0.062160
      6          1           0       -7.369906   -3.017171   -0.405130
      7          7           0       -3.153081    0.103152    1.264203
      8          6           0       -4.176002    0.955630    1.384574
      9          1           0       -3.913899    1.947993    1.748945
     10          7           0       -5.468025    0.767191    1.123656
     11          6           0       -5.681864   -0.483426    0.682436
     12          6           0       -3.400994   -1.147557    0.817701
     13          7           0       -2.381198   -1.999956    0.696874
     14          1           0       -2.518337   -2.935764    0.370249
     15          1           0       -1.445870   -1.732360    0.928577
     16          1           0       -8.815287   -0.866010    0.941497
     17          1           0       -8.086518    0.565847    0.653788
     18          1           0       -8.578692   -0.364055   -0.593268
     19          7           0       -3.015181    1.904533   -1.521689
     20          6           0       -1.661274    1.898273   -1.287280
     21          6           0       -3.925304    3.032546   -1.238923
     22          7           0        1.203014    3.504429   -0.156845
     23          1           0        2.177143    3.298929   -0.066942
     24          1           0        0.900421    4.408999    0.144649
     25          7           0       -0.940687    2.913378   -0.763467
     26          6           0        0.340480    2.607903   -0.659018
     27          7           0        0.876948    1.401218   -1.037975
     28          1           0        1.867988    1.255283   -0.921783
     29          6           0        0.154432    0.342492   -1.579212
     30          8           0        0.735342   -0.705288   -1.888129
     31          6           0       -1.223517    0.655753   -1.697546
     32          7           0       -2.281324   -0.102779   -2.179816
     33          6           0       -3.321116    0.676824   -2.056259
     34          1           0       -4.338249    0.405107   -2.340663
     35          1           0       -4.625150    2.742968   -0.586878
     36          1           0       -3.402734    3.790406   -0.850560
     37          1           0       -4.362776    3.330603   -2.086628
     38          1           0        6.736677    0.924184    0.506165
     39          1           0        7.042844    1.288073   -1.190448
     40          1           0        5.611485    1.941942   -0.393544
     41          1           0        5.912374   -3.379311   -1.480562
     42          6           0        5.415900   -2.415950   -1.363532
     43          8           0        3.267358   -3.246944   -1.929491
     44          6           0        4.007299   -2.321210   -1.597407
     45          1           0        2.486848   -0.951472   -1.578003
     46          7           0        3.479302   -1.058033   -1.421758
     47          8           0        3.600218    1.154691   -0.925348
     48          6           0        4.156238    0.078370   -1.055862
     49          1           0        7.175746   -1.344031   -0.816044
     50          6           0        6.103325   -1.325129   -1.005520
     51          6           0        6.275900    1.092929   -0.455748
     52          7           0        5.510696   -0.093688   -0.848348
     53          1           0        3.989577    2.748915    3.423998
     54          1           0        2.855488    3.075748    2.297444
     55          1           0        4.421254    2.929054    1.860467
     56          1           0        0.932457   -3.562868    0.998914
     57          1           0        2.569882   -3.448770    1.463590
     58          7           0        1.701583   -2.987595    1.277559
     59          6           0        1.576013   -1.664204    1.396097
     60          6           0        2.342047    0.539767    1.862373
     61          7           0        1.163894    1.131954    1.606078
     62          1           0       -0.734440    0.624025    1.023893
     63          6           0        0.254157    0.227047    1.250521
     64          7           0        0.377976   -1.098851    1.131205
     65          1           0        5.458315    0.330163    2.697321
     66          6           0        4.430743    0.132040    2.391076
     67          7           0        3.949734   -1.056784    2.120872
     68          6           0        2.626205   -0.812522    1.784222
     69          6           0        3.710480    2.590068    2.476964
     70          7           0        3.512540    1.144521    2.255094
 ---------------------------------------------------------------------

 SCF Done:  E(RwB97XD) =  -2048.74085887     A.U. after   15 cycles

 The electronic state is 1-A.
 Alpha  occ. eigenvalues --  -19.26050 -19.21962 -19.20536 -14.52507 -14.51480
 Alpha  occ. eigenvalues --  -14.49715 -14.48413 -14.47874 -14.46716 -14.46538
 Alpha  occ. eigenvalues --  -14.46451 -14.44481 -14.43064 -14.42923 -14.42748
 Alpha  occ. eigenvalues --  -14.42346 -14.42008 -14.41966 -14.41026 -14.40641
 Alpha  occ. eigenvalues --  -10.45596 -10.40972 -10.40065 -10.38634 -10.38096
 Alpha  occ. eigenvalues --  -10.37671 -10.37111 -10.36302 -10.36056 -10.35836
 Alpha  occ. eigenvalues --  -10.34987 -10.34671 -10.34359 -10.34174 -10.34048
 Alpha  occ. eigenvalues --  -10.33642 -10.33067 -10.31762 -10.31443 -10.30976
 Alpha  occ. eigenvalues --  -10.30102 -10.29503 -10.27975  -1.19590  -1.14191
 Alpha  occ. eigenvalues --   -1.13121  -1.12996  -1.12310  -1.10375  -1.09392
 Alpha  occ. eigenvalues --   -1.08435  -1.07968  -1.05912  -1.03537  -1.02520
 Alpha  occ. eigenvalues --   -1.01336  -1.00019  -0.99578  -0.98398  -0.97851
 Alpha  occ. eigenvalues --   -0.96290  -0.95585  -0.93548  -0.91009  -0.86708
 Alpha  occ. eigenvalues --   -0.85215  -0.84869  -0.83996  -0.83827  -0.83193
 Alpha  occ. eigenvalues --   -0.82054  -0.78870  -0.75987  -0.74460  -0.73785
 Alpha  occ. eigenvalues --   -0.73718  -0.73504  -0.73369  -0.72009  -0.69383
 Alpha  occ. eigenvalues --   -0.67236  -0.67186  -0.66564  -0.65715  -0.64444
 Alpha  occ. eigenvalues --   -0.63655  -0.63572  -0.63188  -0.62605  -0.61564
 Alpha  occ. eigenvalues --   -0.61023  -0.60453  -0.59583  -0.59502  -0.58747
 Alpha  occ. eigenvalues --   -0.58579  -0.58191  -0.57390  -0.57303  -0.56551
 Alpha  occ. eigenvalues --   -0.56119  -0.55992  -0.54860  -0.54570  -0.54377
 Alpha  occ. eigenvalues --   -0.53775  -0.53451  -0.52919  -0.52773  -0.52649
 Alpha  occ. eigenvalues --   -0.52518  -0.52246  -0.51800  -0.51581  -0.51022
 Alpha  occ. eigenvalues --   -0.49958  -0.49916  -0.49450  -0.48936  -0.48611
 Alpha  occ. eigenvalues --   -0.48598  -0.48131  -0.47931  -0.47748  -0.47597
 Alpha  occ. eigenvalues --   -0.47306  -0.45744  -0.45424  -0.44000  -0.43284
 Alpha  occ. eigenvalues --   -0.42077  -0.39898  -0.39574  -0.38152  -0.37230
 Alpha  occ. eigenvalues --   -0.37152  -0.36929  -0.36268  -0.35513  -0.34492
 Alpha  occ. eigenvalues --   -0.34410  -0.34293  -0.33319  -0.33159  -0.32963
 Alpha  occ. eigenvalues --   -0.32576  -0.32252  -0.31911  -0.31772  -0.31655
 Alpha  occ. eigenvalues --   -0.31272  -0.28389  -0.26720  -0.25299
 Alpha virt. eigenvalues --    0.03199   0.04825   0.07033   0.08181   0.08633
 Alpha virt. eigenvalues --    0.09115   0.09711   0.09995   0.10910   0.11693
 Alpha virt. eigenvalues --    0.12952   0.13258   0.14446   0.14721   0.14948

 Mulliken charges:
               1
     1  N   -0.311381
     2  C    0.180282
     3  C    0.046196
     4  N   -0.256175
     5  C    0.132441
     6  H    0.029440
     7  N   -0.273329
     8  C    0.126727
     9  H    0.019653
    10  N   -0.291041
    11  C    0.229744
    12  C    0.102520
    13  N   -0.044678
    14  H    0.108259
    15  H    0.088355
    16  H    0.028149
    17  H    0.034703
    18  H    0.026355
    19  N   -0.296563
    20  C    0.242354
    21  C    0.179107
    22  N   -0.097525
    23  H    0.107837
    24  H    0.114583
    25  N   -0.294165
    26  C    0.218383
    27  N   -0.117621
    28  H    0.118701
    29  C    0.137065
    30  O   -0.321546
    31  C    0.011637
    32  N   -0.223183
    33  C    0.118115
    34  H    0.026431
    35  H    0.022757
    36  H    0.025595
    37  H    0.021073
    38  H    0.049552
    39  H    0.065553
    40  H    0.075354
    41  H    0.030398
    42  C   -0.103209
    43  O   -0.269984
    44  C    0.178099
    45  H    0.136010
    46  N   -0.131300
    47  O   -0.348274
    48  C    0.349119
    49  H    0.046147
    50  C    0.177161
    51  C    0.033864
    52  N   -0.286041
    53  H    0.033944
    54  H    0.030355
    55  H    0.018244
    56  H    0.120538
    57  H    0.119584
    58  N   -0.059464
    59  C    0.124065
    60  C    0.231041
    61  N   -0.273611
    62  H    0.047279
    63  C    0.161933
    64  N   -0.301817
    65  H    0.028830
    66  C    0.113878
    67  N   -0.251302
    68  C    0.006655
    69  C    0.177313
    70  N   -0.299169
 Sum of Mulliken charges =  -0.00000

 Dipole moment (field-independent basis, Debye):
    X=              5.6896    Y=              5.8854    Z=              3.7357  Tot=              8.9981
 Quadrupole moment (field-independent basis, Debye-Ang):
   XX=           -140.2971   YY=           -227.0041   ZZ=           -256.5088
   XY=             14.4249   XZ=             15.4149   YZ=             -7.3183

 Normal termination of Gaussian 16 at Sun Jan 21 01:30:34 2018.
