 Gaussian 16, Revision A.03,
 Gaussian 16:  EM64L-G16RevA.03 25-Dec-2016

 ---------------------------------------
 #p wb97xd/cc-pvdz sp scf=(maxcycles=20)
 ---------------------------------------

 ------------------
 Base pair stacking
 ------------------
 Symbolic Z-matrix:
 Charge =  0 Multiplicity = 1

                         Standard orientation:
 ---------------------------------------------------------------------
 Center     Atomic      Atomic             Coordinates (Angstroms)
 Number     Number       Type             X           Y           Z
 ---------------------------------------------------------------------
      1          7           0        4.541724   -2.050295   -1.401058
      2          6           0        5.853450   -1.717664   -1.989889
      3          6           0        2.393491   -2.093877   -0.931479
      4          7           0        2.988968   -3.042708   -0.113039
      5          6           0        4.259372   -2.978472   -0.428706
      6          1           0        5.041603   -3.590979    0.020629
      7          7           0        0.803443   -0.706656   -1.985196
      8          6           0        1.822714   -0.200679   -2.687088
      9          1           0        1.554899    0.576729   -3.401359
     10          7           0        3.117057   -0.509368   -2.639357
     11          6           0        3.337978   -1.473970   -1.730973
     12          6           0        1.058463   -1.675749   -1.079154
     13          7           0        0.042331   -2.182077   -0.377544
     14          1           0        0.184740   -2.900910    0.303799
     15          1           0       -0.895411   -1.860333   -0.508967
     16          1           0        6.242498   -2.531477   -2.421775
     17          1           0        5.739274   -0.999736   -2.675954
     18          1           0        6.471168   -1.395581   -1.272486
     19          7           0        5.451592    1.692714    0.426330
     20          6           0        4.088303    1.846451    0.502981
     21          6           0        6.384920    2.650989   -0.199205
     22          7           0        1.228540    3.701513   -0.162031
     23          1           0        0.244642    3.622261   -0.004225
     24          1           0        1.546815    4.520350   -0.640483
     25          7           0        3.378052    2.890372    0.023576
     26          6           0        2.083511    2.752875    0.249103
     27          7           0        1.525207    1.676216    0.894557
     28          1           0        0.525176    1.655223    1.022860
     29          6           0        2.236763    0.590869    1.396137
     30          8           0        1.636108   -0.330440    1.962840
     31          6           0        3.628876    0.724300    1.161382
     32          7           0        4.682517   -0.117001    1.491442
     33          6           0        5.741161    0.496845    1.036826
     34          1           0        6.761176    0.120218    1.120439
     35          1           0        6.873938    2.202894   -0.946786
     36          1           0        5.870158    3.428536   -0.557953
     37          1           0        7.041133    2.972964    0.482354
     38          1           0       -4.549815    1.843430    0.774358
     39          1           0       -4.402277    2.419407    2.433013
     40          1           0       -3.139502    2.786342    1.257383
     41          1           0       -3.747391   -2.302955    3.078729
     42          6           0       -3.191729   -1.433464    2.727374
     43          8           0       -1.073196   -2.485888    2.904382
     44          6           0       -1.766199   -1.507525    2.626289
     45          1           0       -0.154941   -0.366843    2.086861
     46          7           0       -1.161595   -0.352996    2.171590
     47          8           0       -1.156863    1.792156    1.426266
     48          6           0       -1.779027    0.820861    1.818890
     49          1           0       -4.904595   -0.194637    2.449540
     50          6           0       -3.822336   -0.302281    2.390654
     51          6           0       -3.857926    2.046675    1.578140
     52          7           0       -3.154388    0.814105    1.943568
     53          1           0       -6.413166    2.120105   -3.601446
     54          1           0       -4.994163    2.662609   -3.006268
     55          1           0       -6.390475    3.020823   -2.240706
     56          1           0       -3.347234   -3.049629    0.750500
     57          1           0       -5.034065   -2.825249    0.630752
     58          7           0       -4.112770   -2.507242    0.404233
     59          6           0       -3.914979   -1.408555   -0.327162
     60          6           0       -4.593669    0.497906   -1.578773
     61          7           0       -3.345322    0.901296   -1.867470
     62          1           0       -1.409007    0.326492   -1.519797
     63          6           0       -2.451353    0.071719   -1.333114
     64          7           0       -2.647469   -1.029213   -0.600259
     65          1           0       -7.825882    0.567452   -1.569432
     66          6           0       -6.773808    0.320653   -1.423934
     67          7           0       -6.337634   -0.713022   -0.746484
     68          6           0       -4.956881   -0.612518   -0.836767
     69          6           0       -5.902969    2.323025   -2.765672
     70          7           0       -5.772603    1.096563   -1.955236
 ---------------------------------------------------------------------

 SCF Done:  E(RwB97XD) =  -2048.74260228     A.U. after   15 cycles

 The electronic state is 1-A.
 Alpha  occ. eigenvalues --  -19.25489 -19.22002 -19.20800 -14.52596 -14.52027
 Alpha  occ. eigenvalues --  -14.49361 -14.48143 -14.47990 -14.47489 -14.47074
 Alpha  occ. eigenvalues --  -14.46896 -14.45513 -14.44600 -14.44580 -14.42268
 Alpha  occ. eigenvalues --  -14.42241 -14.41596 -14.40814 -14.40561 -14.40320
 Alpha  occ. eigenvalues --  -10.45063 -10.41502 -10.40035 -10.39991 -10.38488
 Alpha  occ. eigenvalues --  -10.38094 -10.37437 -10.37189 -10.36069 -10.35332
 Alpha  occ. eigenvalues --  -10.34803 -10.34764 -10.33986 -10.33923 -10.33400
 Alpha  occ. eigenvalues --  -10.33008 -10.32986 -10.32943 -10.31445 -10.30705
 Alpha  occ. eigenvalues --  -10.30631 -10.28569 -10.28174  -1.19045  -1.15359
 Alpha  occ. eigenvalues --   -1.13483  -1.12953  -1.11054  -1.10758  -1.09595
 Alpha  occ. eigenvalues --   -1.08894  -1.08761  -1.05028  -1.04920  -1.02160
 Alpha  occ. eigenvalues --   -1.01076  -1.00294  -0.99988  -0.98879  -0.97113
 Alpha  occ. eigenvalues --   -0.97093  -0.96386  -0.92622  -0.90700  -0.87802
 Alpha  occ. eigenvalues --   -0.85987  -0.84600  -0.83527  -0.83258  -0.82959
 Alpha  occ. eigenvalues --   -0.81949  -0.78574  -0.77171  -0.75041  -0.75008
 Alpha  occ. eigenvalues --   -0.73910  -0.73050  -0.72590  -0.70813  -0.70542
 Alpha  occ. eigenvalues --   -0.67712  -0.66968  -0.66242  -0.66002  -0.64707
 Alpha  occ. eigenvalues --   -0.64399  -0.63689  -0.62888  -0.62451  -0.62105
 Alpha  occ. eigenvalues --   -0.60702  -0.60483  -0.60244  -0.59461  -0.59177
 Alpha  occ. eigenvalues --   -0.59056  -0.58621  -0.57260  -0.56314  -0.55920
 Alpha  occ. eigenvalues --   -0.55849  -0.55456  -0.55207  -0.54477  -0.54243
 Alpha  occ. eigenvalues --   -0.53837  -0.53738  -0.53676  -0.53288  -0.53137
 Alpha  occ. eigenvalues --   -0.52850  -0.52107  -0.51410  -0.50544  -0.50438
 Alpha  occ. eigenvalues --   -0.50193  -0.49847  -0.49653  -0.49335  -0.49073
 Alpha  occ. eigenvalues --   -0.48675  -0.48554  -0.48242  -0.48063  -0.47410
 Alpha  occ. eigenvalues --   -0.46664  -0.45873  -0.45708  -0.44735  -0.42571
 Alpha  occ. eigenvalues --   -0.40965  -0.40844  -0.39214  -0.38186  -0.37728
 Alpha  occ. eigenvalues --   -0.37664  -0.37542  -0.36777  -0.35760  -0.34932
 Alpha  occ. eigenvalues --   -0.34525  -0.34240  -0.33355  -0.33160  -0.33080
 Alpha  occ. eigenvalues --   -0.32975  -0.32885  -0.32088  -0.31680  -0.30574
 Alpha  occ. eigenvalues --   -0.30257  -0.29723  -0.26072  -0.25395
 Alpha virt. eigenvalues --    0.02468   0.04367   0.06878   0.08201   0.08648
 Alpha virt. eigenvalues --    0.08949   0.09524   0.10376   0.11153   0.11991
 Alpha virt. eigenvalues --    0.12989   0.13474   0.14189   0.14626   0.15058

 Mulliken charges:
               1
     1  N   -0.304832
     2  C    0.183879
     3  C    0.049517
     4  N   -0.248806
     5  C    0.151732
     6  H    0.025544
     7  N   -0.296867
     8  C    0.129505
     9  H    0.009267
    10  N   -0.284973
    11  C    0.239397
    12  C    0.083852
    13  N   -0.059732
    14  H    0.119070
    15  H    0.088725
    16  H    0.024485
    17  H    0.030933
    18  H    0.014533
    19  N   -0.311194
    20  C    0.261790
    21  C    0.182349
    22  N   -0.124122
    23  H    0.118827
    24  H    0.119362
    25  N   -0.312417
    26  C    0.251135
    27  N   -0.146538
    28  H    0.120979
    29  C    0.194453
    30  O   -0.319104
    31  C   -0.016793
    32  N   -0.221596
    33  C    0.111717
    34  H    0.025343
    35  H    0.024181
    36  H    0.032251
    37  H    0.025826
    38  H    0.059358
    39  H    0.057649
    40  H    0.075230
    41  H    0.016868
    42  C   -0.111807
    43  O   -0.275283
    44  C    0.170413
    45  H    0.131319
    46  N   -0.120385
    47  O   -0.352438
    48  C    0.345959
    49  H    0.044690
    50  C    0.166970
    51  C    0.044018
    52  N   -0.275907
    53  H    0.034741
    54  H    0.042551
    55  H    0.028510
    56  H    0.126672
    57  H    0.115175
    58  N   -0.046069
    59  C    0.078550
    60  C    0.227447
    61  N   -0.263884
    62  H    0.033369
    63  C    0.168786
    64  N   -0.310071
    65  H    0.039029
    66  C    0.136976
    67  N   -0.259166
    68  C    0.027821
    69  C    0.179840
    70  N   -0.308608
 Sum of Mulliken charges =  -0.00000

 Dipole moment (field-independent basis, Debye):
    X=             -6.3503    Y=              7.3818    Z=             -2.9516  Tot=             10.1749
 Quadrupole moment (field-independent basis, Debye-Ang):
   XX=           -150.5522   YY=           -223.9622   ZZ=           -255.7194
   XY=             -6.1957   XZ=             -9.6900   YZ=              0.5424

 Normal termination of Gaussian 16 at Sat Jan 20 17:18:01 2018.
