 Gaussian 16, Revision A.03,
 Gaussian 16:  EM64L-G16RevA.03 25-Dec-2016

 ---------------------------------------
 #p wb97xd/cc-pvdz sp scf=(maxcycles=20)
 ---------------------------------------

 ------------------
 Base pair stacking
 ------------------
 Symbolic Z-matrix:
 Charge =  0 Multiplicity = 1

                         Standard orientation:
 ---------------------------------------------------------------------
 Center     Atomic      Atomic             Coordinates (Angstroms)
 Number     Number       Type             X           Y           Z
 ---------------------------------------------------------------------
      1          7           0       -6.396528   -1.451705    0.308868
      2          6           0       -7.735430   -1.010827    0.745867
      3          6           0       -4.222215   -1.741912    0.149205
      4          7           0       -4.789581   -2.489395   -0.872605
      5          6           0       -6.076811   -2.284635   -0.735517
      6          1           0       -6.845424   -2.720379   -1.374506
      7          7           0       -2.665086   -0.733686    1.605832
      8          6           0       -3.714572   -0.177849    2.219992
      9          1           0       -3.472300    0.460475    3.068593
     10          7           0       -5.012310   -0.291585    1.944586
     11          6           0       -5.200264   -1.096720    0.885877
     12          6           0       -2.887365   -1.538662    0.543908
     13          7           0       -1.841035   -2.094439   -0.070475
     14          1           0       -1.958628   -2.697029   -0.860581
     15          1           0       -0.904449   -1.927502    0.237885
     16          1           0       -8.284683   -1.807847    0.997386
     17          1           0       -7.646357   -0.405688    1.536429
     18          1           0       -8.186322   -0.519089    0.000966
     19          7           0       -3.537012    2.473811   -0.924416
     20          6           0       -2.170556    2.436850   -0.784803
     21          6           0       -4.421328    3.529638   -0.391593
     22          7           0        0.769622    3.844321    0.413598
     23          1           0        1.746651    3.633341    0.401971
     24          1           0        0.491744    4.681152    0.886044
     25          7           0       -1.412264    3.351502   -0.142573
     26          6           0       -0.128356    3.041724   -0.177504
     27          7           0        0.376400    1.922330   -0.793696
     28          1           0        1.372317    1.765610   -0.770323
     29          6           0       -0.385181    0.967706   -1.460447
     30          8           0        0.169270   -0.006930   -1.983332
     31          6           0       -1.766547    1.286862   -1.431415
     32          7           0       -2.857415    0.615370   -1.966209
     33          6           0       -3.883232    1.354552   -1.641372
     34          1           0       -4.918212    1.128725   -1.900398
     35          1           0       -5.077550    3.126955    0.245608
     36          1           0       -3.870744    4.212855    0.086257
     37          1           0       -4.912852    3.966315   -1.144279
     38          1           0        6.323635    1.227853    0.253403
     39          1           0        6.517958    1.881089   -1.371456
     40          1           0        5.145652    2.377502   -0.380651
     41          1           0        5.350054   -2.674235   -2.387139
     42          6           0        4.866728   -1.749064   -2.073000
     43          8           0        2.681663   -2.485272   -2.630292
     44          6           0        3.446135   -1.625441   -2.193186
     45          1           0        1.936409   -0.290435   -1.837041
     46          7           0        2.936572   -0.415277   -1.767614
     47          8           0        3.100013    1.679478   -0.905929
     48          6           0        3.641361    0.645781   -1.256760
     49          1           0        6.663804   -0.775140   -1.466531
     50          6           0        5.581251   -0.731477   -1.578445
     51          6           0        5.800689    1.556695   -0.632299
     52          7           0        5.005842    0.450149   -1.172216
     53          1           0        4.488273    0.821489    4.621321
     54          1           0        3.259679    1.628506    3.913244
     55          1           0        4.793733    1.875856    3.413662
     56          1           0        1.554670   -3.289662   -0.815401
     57          1           0        3.215065   -3.323236   -0.425481
     58          7           0        2.314937   -2.907827   -0.289732
     59          6           0        2.137423   -1.889940    0.554997
     60          6           0        2.833210   -0.266539    2.149420
     61          7           0        1.613126    0.271535    2.311574
     62          1           0       -0.297693    0.024154    1.612882
     63          6           0        0.722322   -0.351174    1.542427
     64          7           0        0.898146   -1.370847    0.695714
     65          1           0        6.009272   -0.655696    2.611321
     66          6           0        4.972045   -0.731060    2.283547
     67          7           0        4.527806   -1.601731    1.410475
     68          6           0        3.173037   -1.318125    1.316224
     69          6           0        4.147205    1.195393    3.758843
     70          7           0        4.000411    0.108218    2.771665
 ---------------------------------------------------------------------

 SCF Done:  E(RwB97XD) =  -2048.73487311     A.U. after   15 cycles

 The electronic state is 1-A.
 Alpha  occ. eigenvalues --  -19.26164 -19.22183 -19.20873 -14.52707 -14.51409
 Alpha  occ. eigenvalues --  -14.48965 -14.48830 -14.48193 -14.47153 -14.46867
 Alpha  occ. eigenvalues --  -14.45803 -14.44450 -14.42819 -14.42648 -14.42175
 Alpha  occ. eigenvalues --  -14.42040 -14.41519 -14.41036 -14.40924 -14.40233
 Alpha  occ. eigenvalues --  -10.45788 -10.41406 -10.40475 -10.38432 -10.38222
 Alpha  occ. eigenvalues --  -10.37953 -10.36934 -10.35915 -10.35648 -10.35404
 Alpha  occ. eigenvalues --  -10.34490 -10.34456 -10.34205 -10.33471 -10.33391
 Alpha  occ. eigenvalues --  -10.33195 -10.33168 -10.31282 -10.31266 -10.31103
 Alpha  occ. eigenvalues --  -10.30814 -10.28594 -10.28226  -1.19736  -1.14081
 Alpha  occ. eigenvalues --   -1.13701  -1.13392  -1.11509  -1.10701  -1.09586
 Alpha  occ. eigenvalues --   -1.08762  -1.07653  -1.05045  -1.03209  -1.02915
 Alpha  occ. eigenvalues --   -1.00423  -0.99941  -0.99805  -0.98697  -0.97069
 Alpha  occ. eigenvalues --   -0.96653  -0.95283  -0.92674  -0.91193  -0.86453
 Alpha  occ. eigenvalues --   -0.84895  -0.84200  -0.84092  -0.83989  -0.82528
 Alpha  occ. eigenvalues --   -0.82468  -0.79116  -0.75705  -0.74748  -0.73849
 Alpha  occ. eigenvalues --   -0.73682  -0.73451  -0.72965  -0.71126  -0.69056
 Alpha  occ. eigenvalues --   -0.67550  -0.66833  -0.66352  -0.65439  -0.64704
 Alpha  occ. eigenvalues --   -0.63938  -0.62956  -0.62832  -0.62652  -0.61894
 Alpha  occ. eigenvalues --   -0.60377  -0.60248  -0.59700  -0.59205  -0.58559
 Alpha  occ. eigenvalues --   -0.58508  -0.58306  -0.56794  -0.56589  -0.56491
 Alpha  occ. eigenvalues --   -0.56225  -0.55364  -0.54863  -0.54678  -0.54231
 Alpha  occ. eigenvalues --   -0.53823  -0.53589  -0.53078  -0.52768  -0.52584
 Alpha  occ. eigenvalues --   -0.52369  -0.51902  -0.51631  -0.50969  -0.50363
 Alpha  occ. eigenvalues --   -0.50308  -0.49850  -0.49668  -0.49232  -0.49118
 Alpha  occ. eigenvalues --   -0.48509  -0.48474  -0.47797  -0.47689  -0.47339
 Alpha  occ. eigenvalues --   -0.47045  -0.45585  -0.45128  -0.44130  -0.42800
 Alpha  occ. eigenvalues --   -0.41258  -0.39713  -0.39514  -0.37423  -0.37365
 Alpha  occ. eigenvalues --   -0.37237  -0.37101  -0.36295  -0.35651  -0.34345
 Alpha  occ. eigenvalues --   -0.33767  -0.33747  -0.33540  -0.33436  -0.32936
 Alpha  occ. eigenvalues --   -0.32813  -0.32402  -0.32093  -0.32007  -0.31053
 Alpha  occ. eigenvalues --   -0.30441  -0.27902  -0.25890  -0.25466
 Alpha virt. eigenvalues --    0.02702   0.05309   0.07905   0.07968   0.08592
 Alpha virt. eigenvalues --    0.08891   0.09624   0.10760   0.10979   0.12198
 Alpha virt. eigenvalues --    0.13280   0.13816   0.14589   0.14603   0.15412

 Mulliken charges:
               1
     1  N   -0.310568
     2  C    0.180522
     3  C    0.049393
     4  N   -0.251367
     5  C    0.126518
     6  H    0.025913
     7  N   -0.289730
     8  C    0.132854
     9  H    0.013256
    10  N   -0.291801
    11  C    0.229795
    12  C    0.101527
    13  N   -0.041583
    14  H    0.111387
    15  H    0.092931
    16  H    0.026941
    17  H    0.034173
    18  H    0.022231
    19  N   -0.309238
    20  C    0.257844
    21  C    0.180223
    22  N   -0.121997
    23  H    0.114479
    24  H    0.118480
    25  N   -0.310184
    26  C    0.246896
    27  N   -0.146412
    28  H    0.119173
    29  C    0.182799
    30  O   -0.326372
    31  C   -0.011140
    32  N   -0.224614
    33  C    0.131504
    34  H    0.024979
    35  H    0.031725
    36  H    0.028708
    37  H    0.022942
    38  H    0.052138
    39  H    0.062324
    40  H    0.074174
    41  H    0.027096
    42  C   -0.094153
    43  O   -0.288904
    44  C    0.139675
    45  H    0.138356
    46  N   -0.116411
    47  O   -0.346310
    48  C    0.350735
    49  H    0.046349
    50  C    0.193533
    51  C    0.042343
    52  N   -0.282943
    53  H    0.031991
    54  H    0.041173
    55  H    0.020753
    56  H    0.128528
    57  H    0.114460
    58  N   -0.021252
    59  C    0.091340
    60  C    0.247267
    61  N   -0.278247
    62  H    0.032734
    63  C    0.162668
    64  N   -0.304528
    65  H    0.029477
    66  C    0.119263
    67  N   -0.254250
    68  C   -0.003533
    69  C    0.181219
    70  N   -0.309251
 Sum of Mulliken charges =  -0.00000

 Dipole moment (field-independent basis, Debye):
    X=              6.6016    Y=              6.0129    Z=              3.5314  Tot=              9.6025
 Quadrupole moment (field-independent basis, Debye-Ang):
   XX=           -143.4404   YY=           -225.4558   ZZ=           -253.6534
   XY=              6.0824   XZ=             12.6987   YZ=              3.7589

 Normal termination of Gaussian 16 at Sat Jan 20 19:54:55 2018.
