 Gaussian 16, Revision A.03,
 Gaussian 16:  EM64L-G16RevA.03 25-Dec-2016

 ---------------------------------------
 #p wb97xd/cc-pvdz sp scf=(maxcycles=20)
 ---------------------------------------

 ------------------
 Base pair stacking
 ------------------
 Symbolic Z-matrix:
 Charge =  0 Multiplicity = 1

                         Standard orientation:
 ---------------------------------------------------------------------
 Center     Atomic      Atomic             Coordinates (Angstroms)
 Number     Number       Type             X           Y           Z
 ---------------------------------------------------------------------
      1          7           0        5.176753   -1.663768   -1.285963
      2          6           0        6.512077   -1.165203   -1.668528
      3          6           0        3.003417   -1.879176   -1.026136
      4          7           0        3.579913   -2.971954   -0.395080
      5          6           0        4.866192   -2.798440   -0.576874
      6          1           0        5.640594   -3.473645   -0.211722
      7          7           0        1.433116   -0.336157   -1.872403
      8          6           0        2.477400    0.348105   -2.350775
      9          1           0        2.227595    1.260158   -2.891161
     10          7           0        3.777824    0.076164   -2.262248
     11          6           0        3.975155   -1.063974   -1.579907
     12          6           0        1.664815   -1.479076   -1.190403
     13          7           0        0.623676   -2.163520   -0.712113
     14          1           0        0.748272   -3.014837   -0.201278
     15          1           0       -0.315818   -1.848846   -0.848034
     16          1           0        6.973036   -1.846008   -2.237914
     17          1           0        6.416006   -0.312823   -2.181691
     18          1           0        7.055829   -0.997718   -0.846160
     19          7           0        4.855506    1.753327    0.887858
     20          6           0        3.484777    1.848522    0.879055
     21          6           0        5.786072    2.783979    0.385357
     22          7           0        0.598021    3.627295    0.127785
     23          1           0       -0.389839    3.500006    0.212377
     24          1           0        0.911709    4.485753   -0.278858
     25          7           0        2.763500    2.891195    0.413609
     26          6           0        1.463981    2.689507    0.540798
     27          7           0        0.911073    1.554260    1.082118
     28          1           0       -0.093432    1.486258    1.139614
     29          6           0        1.633952    0.468949    1.567308
     30          8           0        1.037332   -0.508183    2.036348
     31          6           0        3.031517    0.670992    1.437431
     32          7           0        4.096267   -0.147000    1.789695
     33          6           0        5.155270    0.534578    1.445934
     34          1           0        6.182811    0.193813    1.577601
     35          1           0        6.342697    2.402048   -0.351598
     36          1           0        5.263164    3.561267    0.038001
     37          1           0        6.380901    3.089075    1.128250
     38          1           0       -5.144015    1.490234    0.552749
     39          1           0       -5.132279    1.968840    2.248467
     40          1           0       -3.811105    2.456343    1.186287
     41          1           0       -4.318088   -2.754902    2.660656
     42          6           0       -3.778422   -1.844394    2.399932
     43          8           0       -1.632818   -2.821823    2.660966
     44          6           0       -2.347456   -1.856185    2.393363
     45          1           0       -0.754737   -0.622305    2.034081
     46          7           0       -1.764450   -0.653144    2.049767
     47          8           0       -1.802942    1.532165    1.433235
     48          6           0       -2.407252    0.515000    1.724510
     49          1           0       -5.521002   -0.658978    2.077416
     50          6           0       -4.433577   -0.720311    2.087195
     51          6           0       -4.516613    1.670813    1.412888
     52          7           0       -3.786280    0.446704    1.753332
     53          1           0       -5.767549    2.565461   -3.425896
     54          1           0       -4.427329    2.999785   -2.602933
     55          1           0       -5.894617    3.130173   -1.899990
     56          1           0       -2.796023   -3.369325   -0.107181
     57          1           0       -4.477555   -3.174811   -0.318619
     58          7           0       -3.558316   -2.785465   -0.386746
     59          6           0       -3.359007   -1.542788   -0.830808
     60          6           0       -4.032095    0.578472   -1.672785
     61          7           0       -2.786596    1.075080   -1.753624
     62          1           0       -0.856964    0.494938   -1.378702
     63          6           0       -1.896794    0.172576   -1.345398
     64          7           0       -2.094430   -1.072568   -0.900294
     65          1           0       -7.254847    0.545784   -1.927727
     66          6           0       -6.206277    0.304278   -1.751325
     67          7           0       -5.773327   -0.843521   -1.290045
     68          6           0       -4.396372   -0.683084   -1.235399
     69          6           0       -5.334147    2.586596   -2.524949
     70          7           0       -5.206488    1.211440   -2.004699
 ---------------------------------------------------------------------

 SCF Done:  E(RwB97XD) =  -2048.75124664     A.U. after   15 cycles

 The electronic state is 1-A.
 Alpha  occ. eigenvalues --  -19.25477 -19.21956 -19.20641 -14.52545 -14.52023
 Alpha  occ. eigenvalues --  -14.48963 -14.48602 -14.47940 -14.47494 -14.46858
 Alpha  occ. eigenvalues --  -14.46682 -14.45527 -14.44383 -14.44363 -14.42370
 Alpha  occ. eigenvalues --  -14.42034 -14.41155 -14.41057 -14.41045 -14.40468
 Alpha  occ. eigenvalues --  -10.45068 -10.41259 -10.39962 -10.39892 -10.38278
 Alpha  occ. eigenvalues --  -10.38034 -10.37237 -10.37177 -10.35872 -10.35513
 Alpha  occ. eigenvalues --  -10.34864 -10.34482 -10.34000 -10.33834 -10.33631
 Alpha  occ. eigenvalues --  -10.33302 -10.33186 -10.32712 -10.31161 -10.31066
 Alpha  occ. eigenvalues --  -10.30791 -10.28444 -10.28249  -1.19079  -1.15306
 Alpha  occ. eigenvalues --   -1.13237  -1.12913  -1.11163  -1.10719  -1.09344
 Alpha  occ. eigenvalues --   -1.08925  -1.08586  -1.05129  -1.04790  -1.02192
 Alpha  occ. eigenvalues --   -1.01023  -1.00491  -0.99757  -0.98596  -0.96975
 Alpha  occ. eigenvalues --   -0.96755  -0.96712  -0.92812  -0.90673  -0.87687
 Alpha  occ. eigenvalues --   -0.85969  -0.84257  -0.83898  -0.83327  -0.82644
 Alpha  occ. eigenvalues --   -0.82334  -0.78499  -0.77061  -0.74864  -0.74735
 Alpha  occ. eigenvalues --   -0.73664  -0.73050  -0.72894  -0.71065  -0.70400
 Alpha  occ. eigenvalues --   -0.67453  -0.66810  -0.66312  -0.66188  -0.64405
 Alpha  occ. eigenvalues --   -0.64228  -0.63692  -0.62738  -0.62654  -0.61850
 Alpha  occ. eigenvalues --   -0.60993  -0.60541  -0.60385  -0.59492  -0.59114
 Alpha  occ. eigenvalues --   -0.58803  -0.58407  -0.57118  -0.56602  -0.56119
 Alpha  occ. eigenvalues --   -0.55790  -0.55583  -0.55271  -0.54216  -0.53933
 Alpha  occ. eigenvalues --   -0.53779  -0.53635  -0.53586  -0.53441  -0.53020
 Alpha  occ. eigenvalues --   -0.52837  -0.52143  -0.51814  -0.50715  -0.50337
 Alpha  occ. eigenvalues --   -0.50239  -0.49958  -0.49330  -0.48970  -0.48883
 Alpha  occ. eigenvalues --   -0.48800  -0.48430  -0.48411  -0.47784  -0.47302
 Alpha  occ. eigenvalues --   -0.46956  -0.46001  -0.45271  -0.44756  -0.42924
 Alpha  occ. eigenvalues --   -0.41077  -0.40762  -0.39138  -0.38005  -0.37609
 Alpha  occ. eigenvalues --   -0.37342  -0.37269  -0.37095  -0.36060  -0.34639
 Alpha  occ. eigenvalues --   -0.34343  -0.34063  -0.33476  -0.33306  -0.33160
 Alpha  occ. eigenvalues --   -0.32750  -0.32512  -0.31938  -0.31903  -0.30889
 Alpha  occ. eigenvalues --   -0.30511  -0.29560  -0.26016  -0.25337
 Alpha virt. eigenvalues --    0.03301   0.03974   0.07162   0.07867   0.08671
 Alpha virt. eigenvalues --    0.09060   0.09651   0.10400   0.10962   0.12333
 Alpha virt. eigenvalues --    0.12932   0.13503   0.14345   0.14416   0.14902

 Mulliken charges:
               1
     1  N   -0.305747
     2  C    0.178484
     3  C    0.063309
     4  N   -0.251905
     5  C    0.140909
     6  H    0.025548
     7  N   -0.292105
     8  C    0.132837
     9  H    0.010640
    10  N   -0.285004
    11  C    0.234478
    12  C    0.084123
    13  N   -0.047258
    14  H    0.114397
    15  H    0.083976
    16  H    0.027126
    17  H    0.033245
    18  H    0.016680
    19  N   -0.305046
    20  C    0.261886
    21  C    0.183659
    22  N   -0.123918
    23  H    0.119017
    24  H    0.118225
    25  N   -0.309675
    26  C    0.246896
    27  N   -0.141646
    28  H    0.117472
    29  C    0.185375
    30  O   -0.322044
    31  C   -0.017216
    32  N   -0.217674
    33  C    0.112731
    34  H    0.020644
    35  H    0.023920
    36  H    0.031216
    37  H    0.023565
    38  H    0.053079
    39  H    0.059303
    40  H    0.075297
    41  H    0.020605
    42  C   -0.098445
    43  O   -0.271828
    44  C    0.161382
    45  H    0.129340
    46  N   -0.109746
    47  O   -0.346468
    48  C    0.336195
    49  H    0.045039
    50  C    0.164640
    51  C    0.045683
    52  N   -0.276995
    53  H    0.035170
    54  H    0.041627
    55  H    0.024630
    56  H    0.126387
    57  H    0.115796
    58  N   -0.051793
    59  C    0.083140
    60  C    0.215289
    61  N   -0.263344
    62  H    0.028607
    63  C    0.162864
    64  N   -0.302880
    65  H    0.035727
    66  C    0.120748
    67  N   -0.253407
    68  C    0.041359
    69  C    0.181604
    70  N   -0.299727
 Sum of Mulliken charges =  -0.00000

 Dipole moment (field-independent basis, Debye):
    X=             -6.2788    Y=              6.8738    Z=             -3.1453  Tot=              9.8267
 Quadrupole moment (field-independent basis, Debye-Ang):
   XX=           -149.3444   YY=           -223.8587   ZZ=           -258.3814
   XY=             -6.7777   XZ=             -3.8081   YZ=              4.5798

 Normal termination of Gaussian 16 at Sun Jan 21 00:30:40 2018.
