 Gaussian 16, Revision A.03,
 Gaussian 16:  EM64L-G16RevA.03 25-Dec-2016

 ---------------------------------------
 #p wb97xd/cc-pvdz sp scf=(maxcycles=20)
 ---------------------------------------

 ------------------
 Base pair stacking
 ------------------
 Symbolic Z-matrix:
 Charge =  0 Multiplicity = 1

                         Standard orientation:
 ---------------------------------------------------------------------
 Center     Atomic      Atomic             Coordinates (Angstroms)
 Number     Number       Type             X           Y           Z
 ---------------------------------------------------------------------
      1          7           0       -6.933727   -1.147165    0.128980
      2          6           0       -8.268386   -0.612089    0.461268
      3          6           0       -4.768558   -1.531449    0.088235
      4          7           0       -5.329254   -2.368272   -0.865745
      5          6           0       -6.611251   -2.103260   -0.803016
      6          1           0       -7.373833   -2.580222   -1.419393
      7          7           0       -3.224289   -0.422357    1.483987
      8          6           0       -4.271547    0.236404    1.990819
      9          1           0       -4.033777    0.957023    2.772120
     10          7           0       -5.562333    0.139112    1.678897
     11          6           0       -5.745168   -0.772739    0.709611
     12          6           0       -3.441301   -1.333188    0.510139
     13          7           0       -2.397183   -1.991800    0.002945
     14          1           0       -2.511068   -2.674848   -0.719342
     15          1           0       -1.466056   -1.825007    0.327479
     16          1           0       -8.857651   -1.355484    0.777958
     17          1           0       -8.182887    0.074560    1.182602
     18          1           0       -8.672776   -0.191397   -0.350812
     19          7           0       -2.910521    2.449087   -1.242395
     20          6           0       -1.552396    2.378989   -1.045885
     21          6           0       -3.769933    3.589251   -0.865377
     22          7           0        1.398021    3.805758    0.103516
     23          1           0        2.365606    3.559833    0.153867
     24          1           0        1.137525    4.699879    0.468773
     25          7           0       -0.781022    3.332243   -0.479896
     26          6           0        0.489867    2.974554   -0.429636
     27          7           0        0.970606    1.775527   -0.897328
     28          1           0        1.958007    1.586734   -0.817516
     29          6           0        0.195210    0.779947   -1.483356
     30          8           0        0.728120   -0.266623   -1.872507
     31          6           0       -1.172414    1.149773   -1.544332
     32          7           0       -2.269898    0.462011   -2.043733
     33          6           0       -3.276001    1.269433   -1.843654
     34          1           0       -4.309482    1.053241   -2.116518
     35          1           0       -4.463733    3.284662   -0.213717
     36          1           0       -3.209481    4.301655   -0.445097
     37          1           0       -4.216818    3.955854   -1.680670
     38          1           0        6.844791    0.989980    0.453664
     39          1           0        7.122059    1.448841   -1.224791
     40          1           0        5.736847    2.102580   -0.350041
     41          1           0        5.808708   -3.146898   -1.773304
     42          6           0        5.352167   -2.175480   -1.583150
     43          8           0        3.160219   -2.890700   -2.140773
     44          6           0        3.942762   -2.015184   -1.772146
     45          1           0        2.476243   -0.595208   -1.626199
     46          7           0        3.467533   -0.747304   -1.504028
     47          8           0        3.684550    1.423856   -0.874608
     48          6           0        4.195970    0.338467   -1.086859
     49          1           0        7.164474   -1.204720   -1.018377
     50          6           0        6.089140   -1.135061   -1.176964
     51          6           0        6.366863    1.235658   -0.482965
     52          7           0        5.547690    0.104685   -0.927485
     53          1           0        3.875493    1.204116    4.587197
     54          1           0        2.705857    1.969967    3.746055
     55          1           0        4.265181    2.104245    3.282848
     56          1           0        0.971876   -3.384501   -0.470383
     57          1           0        2.614892   -3.433651   -0.014099
     58          7           0        1.727945   -2.973526    0.039134
     59          6           0        1.561880   -1.861345    0.757915
     60          6           0        2.265847   -0.094927    2.188268
     61          7           0        1.063400    0.501481    2.241504
     62          1           0       -0.830113    0.245896    1.499966
     63          6           0        0.175860   -0.171398    1.511837
     64          7           0        0.340237   -1.285516    0.791217
     65          1           0        5.405586   -0.543544    2.815168
     66          6           0        4.378310   -0.617980    2.457233
     67          7           0        3.930406   -1.564819    1.669474
     68          6           0        2.592239   -1.245108    1.491070
     69          6           0        3.580163    1.490616    3.675781
     70          7           0        3.424600    0.305260    2.810478
 ---------------------------------------------------------------------

 SCF Done:  E(RwB97XD) =  -2048.74501015     A.U. after   15 cycles

 The electronic state is 1-A.
 Alpha  occ. eigenvalues --  -19.26159 -19.22490 -19.20858 -14.52621 -14.50991
 Alpha  occ. eigenvalues --  -14.49286 -14.48783 -14.48152 -14.47168 -14.46973
 Alpha  occ. eigenvalues --  -14.45283 -14.44028 -14.42359 -14.42221 -14.42191
 Alpha  occ. eigenvalues --  -14.42153 -14.41938 -14.41316 -14.40915 -14.40473
 Alpha  occ. eigenvalues --  -10.45738 -10.41454 -10.40489 -10.38466 -10.37779
 Alpha  occ. eigenvalues --  -10.37674 -10.36602 -10.35720 -10.35680 -10.35437
 Alpha  occ. eigenvalues --  -10.34581 -10.34501 -10.33956 -10.33845 -10.33454
 Alpha  occ. eigenvalues --  -10.33328 -10.32924 -10.31428 -10.31095 -10.30820
 Alpha  occ. eigenvalues --  -10.30738 -10.28991 -10.28269  -1.19695  -1.13686
 Alpha  occ. eigenvalues --   -1.13577  -1.13421  -1.11864  -1.10702  -1.09536
 Alpha  occ. eigenvalues --   -1.08809  -1.07093  -1.05323  -1.02845  -1.02621
 Alpha  occ. eigenvalues --   -1.00698  -1.00013  -0.99350  -0.98718  -0.97386
 Alpha  occ. eigenvalues --   -0.96637  -0.94728  -0.92928  -0.91106  -0.86031
 Alpha  occ. eigenvalues --   -0.84518  -0.84393  -0.84199  -0.83980  -0.82755
 Alpha  occ. eigenvalues --   -0.82495  -0.79033  -0.75218  -0.74738  -0.73875
 Alpha  occ. eigenvalues --   -0.73619  -0.73259  -0.72946  -0.71436  -0.68545
 Alpha  occ. eigenvalues --   -0.67579  -0.66765  -0.66643  -0.64914  -0.64643
 Alpha  occ. eigenvalues --   -0.63912  -0.63054  -0.62841  -0.62330  -0.61923
 Alpha  occ. eigenvalues --   -0.60471  -0.60037  -0.59685  -0.58765  -0.58624
 Alpha  occ. eigenvalues --   -0.58346  -0.57873  -0.56927  -0.56769  -0.56576
 Alpha  occ. eigenvalues --   -0.56223  -0.55568  -0.54615  -0.54424  -0.53877
 Alpha  occ. eigenvalues --   -0.53805  -0.53574  -0.53060  -0.52782  -0.52418
 Alpha  occ. eigenvalues --   -0.52156  -0.51981  -0.51247  -0.51172  -0.50547
 Alpha  occ. eigenvalues --   -0.50384  -0.49730  -0.49409  -0.49159  -0.48919
 Alpha  occ. eigenvalues --   -0.48445  -0.48196  -0.47817  -0.47789  -0.47426
 Alpha  occ. eigenvalues --   -0.47323  -0.45444  -0.45184  -0.44104  -0.42850
 Alpha  occ. eigenvalues --   -0.41580  -0.39718  -0.39113  -0.37574  -0.37459
 Alpha  occ. eigenvalues --   -0.37341  -0.36910  -0.35893  -0.35428  -0.34587
 Alpha  occ. eigenvalues --   -0.34004  -0.33896  -0.33626  -0.33018  -0.32755
 Alpha  occ. eigenvalues --   -0.32424  -0.32373  -0.32029  -0.31989  -0.31392
 Alpha  occ. eigenvalues --   -0.30673  -0.27647  -0.26136  -0.25574
 Alpha virt. eigenvalues --    0.02926   0.05559   0.07599   0.08146   0.08765
 Alpha virt. eigenvalues --    0.09274   0.09580   0.10597   0.10922   0.12359
 Alpha virt. eigenvalues --    0.12993   0.13641   0.14425   0.14707   0.15978

 Mulliken charges:
               1
     1  N   -0.310272
     2  C    0.180693
     3  C    0.034061
     4  N   -0.254638
     5  C    0.129138
     6  H    0.027426
     7  N   -0.285459
     8  C    0.130326
     9  H    0.014984
    10  N   -0.290537
    11  C    0.231200
    12  C    0.105444
    13  N   -0.038723
    14  H    0.108732
    15  H    0.089513
    16  H    0.027289
    17  H    0.035336
    18  H    0.024214
    19  N   -0.308154
    20  C    0.253365
    21  C    0.180095
    22  N   -0.123280
    23  H    0.112601
    24  H    0.118535
    25  N   -0.308138
    26  C    0.248291
    27  N   -0.136636
    28  H    0.117280
    29  C    0.172977
    30  O   -0.325267
    31  C   -0.007017
    32  N   -0.227037
    33  C    0.128013
    34  H    0.029735
    35  H    0.033402
    36  H    0.027995
    37  H    0.023139
    38  H    0.053541
    39  H    0.062856
    40  H    0.073508
    41  H    0.028703
    42  C   -0.081921
    43  O   -0.288196
    44  C    0.165270
    45  H    0.138690
    46  N   -0.126786
    47  O   -0.351163
    48  C    0.354350
    49  H    0.046545
    50  C    0.177281
    51  C    0.040579
    52  N   -0.288908
    53  H    0.030884
    54  H    0.040772
    55  H    0.019171
    56  H    0.119517
    57  H    0.116407
    58  N   -0.021254
    59  C    0.095183
    60  C    0.243851
    61  N   -0.275907
    62  H    0.034842
    63  C    0.159227
    64  N   -0.302557
    65  H    0.025346
    66  C    0.121795
    67  N   -0.257069
    68  C    0.005812
    69  C    0.180859
    70  N   -0.309854
 Sum of Mulliken charges =  -0.00000

 Dipole moment (field-independent basis, Debye):
    X=              6.5345    Y=              6.0073    Z=              3.0189  Tot=              9.3756
 Quadrupole moment (field-independent basis, Debye-Ang):
   XX=           -140.2552   YY=           -225.8538   ZZ=           -251.9865
   XY=              8.0875   XZ=             18.4725   YZ=              1.0394

 Normal termination of Gaussian 16 at Sat Jan 20 21:31:01 2018.
