 Gaussian 16, Revision A.03,
 Gaussian 16:  EM64L-G16RevA.03 25-Dec-2016

 ---------------------------------------
 #p wb97xd/cc-pvdz sp scf=(maxcycles=20)
 ---------------------------------------

 ------------------
 Base pair stacking
 ------------------
 Symbolic Z-matrix:
 Charge =  0 Multiplicity = 1

                         Standard orientation:
 ---------------------------------------------------------------------
 Center     Atomic      Atomic             Coordinates (Angstroms)
 Number     Number       Type             X           Y           Z
 ---------------------------------------------------------------------
      1          7           0       -7.165111   -0.993874    0.144863
      2          6           0       -8.482627   -0.335933    0.241034
      3          6           0       -5.016344   -1.438218    0.295527
      4          7           0       -5.594791   -2.529058   -0.337073
      5          6           0       -6.866193   -2.217694   -0.402522
      6          1           0       -7.637386   -2.849782   -0.843749
      7          7           0       -3.451281    0.026260    1.279825
      8          6           0       -4.479475    0.850217    1.506747
      9          1           0       -4.225581    1.783849    2.006867
     10          7           0       -5.768155    0.694753    1.210015
     11          6           0       -5.971796   -0.483887    0.598657
     12          6           0       -3.688945   -1.151872    0.662894
     13          7           0       -2.663878   -1.975706    0.435505
     14          1           0       -2.793423   -2.858064   -0.018244
     15          1           0       -1.732003   -1.739143    0.710808
     16          1           0       -9.105462   -0.910129    0.772581
     17          1           0       -8.381296    0.550401    0.691887
     18          1           0       -8.857659   -0.200552   -0.676047
     19          7           0       -2.673439    2.068004   -1.543663
     20          6           0       -1.321916    2.033806   -1.298144
     21          6           0       -3.556117    3.226746   -1.301011
     22          7           0        1.574555    3.598108   -0.191264
     23          1           0        2.542353    3.370378   -0.087536
     24          1           0        1.293255    4.518527    0.081515
     25          7           0       -0.579194    3.044885   -0.798018
     26          6           0        0.692833    2.709796   -0.674357
     27          7           0        1.200670    1.479224   -1.013936
     28          1           0        2.186720    1.311353   -0.885503
     29          6           0        0.455006    0.424104   -1.530242
     30          8           0        1.010867   -0.646770   -1.804045
     31          6           0       -0.913456    0.769058   -1.668787
     32          7           0       -1.986949    0.024229   -2.137555
     33          6           0       -3.007094    0.833520   -2.045037
     34          1           0       -4.028784    0.579848   -2.329763
     35          1           0       -4.268029    2.974291   -0.646592
     36          1           0       -3.016990    3.981908   -0.930443
     37          1           0       -3.979439    3.511162   -2.160506
     38          1           0        7.034493    0.897051    0.591020
     39          1           0        7.362529    1.203489   -1.112833
     40          1           0        5.942728    1.916766   -0.346843
     41          1           0        6.113775   -3.439801   -1.277281
     42          6           0        5.641560   -2.461027   -1.192161
     43          8           0        3.476462   -3.252710   -1.751370
     44          6           0        4.237652   -2.337001   -1.440135
     45          1           0        2.753069   -0.928708   -1.472672
     46          7           0        3.741244   -1.056119   -1.305345
     47          8           0        3.915741    1.166272   -0.872058
     48          6           0        4.444660    0.072692   -0.966908
     49          1           0        7.424465   -1.419167   -0.661529
     50          6           0        6.354321   -1.378269   -0.860194
     51          6           0        6.585376    1.049538   -0.379082
     52          7           0        5.792630   -0.127974   -0.743473
     53          1           0        3.658487    2.375499    3.851723
     54          1           0        2.532915    2.850297    2.770159
     55          1           0        4.103240    2.771029    2.332123
     56          1           0        0.654691   -3.553053    0.550954
     57          1           0        2.287301   -3.498026    1.042525
     58          7           0        1.418424   -3.018833    0.913531
     59          6           0        1.285193   -1.724889    1.212095
     60          6           0        2.036041    0.396598    1.984924
     61          7           0        0.857281    1.014100    1.801422
     62          1           0       -1.033203    0.584229    1.136690
     63          6           0       -0.044712    0.163480    1.315893
     64          7           0        0.086772   -1.132855    1.016208
     65          1           0        5.145709    0.085453    2.812749
     66          6           0        4.121914   -0.072376    2.472318
     67          7           0        3.649283   -1.214383    2.036296
     68          6           0        2.327616   -0.930937    1.723888
     69          6           0        3.388672    2.347672    2.889213
     70          7           0        3.199930    0.945783    2.468386
 ---------------------------------------------------------------------

 SCF Done:  E(RwB97XD) =  -2048.74773267     A.U. after   15 cycles

 The electronic state is 1-A.
 Alpha  occ. eigenvalues --  -19.26070 -19.22073 -19.20660 -14.52533 -14.51159
 Alpha  occ. eigenvalues --  -14.49671 -14.48582 -14.47857 -14.46895 -14.46780
 Alpha  occ. eigenvalues --  -14.46074 -14.44146 -14.42769 -14.42553 -14.42541
 Alpha  occ. eigenvalues --  -14.42347 -14.42055 -14.41848 -14.40983 -14.40746
 Alpha  occ. eigenvalues --  -10.45615 -10.41239 -10.40149 -10.38273 -10.38138
 Alpha  occ. eigenvalues --  -10.37708 -10.36755 -10.36215 -10.35770 -10.35671
 Alpha  occ. eigenvalues --  -10.34985 -10.34316 -10.34311 -10.34165 -10.33953
 Alpha  occ. eigenvalues --  -10.33194 -10.33173 -10.31693 -10.31094 -10.31014
 Alpha  occ. eigenvalues --  -10.30452 -10.29482 -10.28111  -1.19584  -1.13834
 Alpha  occ. eigenvalues --   -1.13231  -1.13079  -1.12277  -1.10515  -1.09424
 Alpha  occ. eigenvalues --   -1.08618  -1.07466  -1.05837  -1.03024  -1.02527
 Alpha  occ. eigenvalues --   -1.01223  -0.99882  -0.99581  -0.98511  -0.97804
 Alpha  occ. eigenvalues --   -0.96439  -0.95100  -0.93452  -0.91030  -0.86287
 Alpha  occ. eigenvalues --   -0.84836  -0.84750  -0.84043  -0.83923  -0.83141
 Alpha  occ. eigenvalues --   -0.82278  -0.78900  -0.75515  -0.74573  -0.73740
 Alpha  occ. eigenvalues --   -0.73694  -0.73401  -0.73210  -0.71925  -0.68891
 Alpha  occ. eigenvalues --   -0.67415  -0.67106  -0.66595  -0.65202  -0.64486
 Alpha  occ. eigenvalues --   -0.63732  -0.63525  -0.62751  -0.62641  -0.61779
 Alpha  occ. eigenvalues --   -0.60919  -0.60041  -0.59544  -0.59084  -0.58685
 Alpha  occ. eigenvalues --   -0.58415  -0.58189  -0.57234  -0.57192  -0.56533
 Alpha  occ. eigenvalues --   -0.56090  -0.56037  -0.54564  -0.54439  -0.54129
 Alpha  occ. eigenvalues --   -0.53604  -0.53568  -0.52889  -0.52735  -0.52688
 Alpha  occ. eigenvalues --   -0.52355  -0.52057  -0.51612  -0.51463  -0.50958
 Alpha  occ. eigenvalues --   -0.50115  -0.49833  -0.49506  -0.48811  -0.48629
 Alpha  occ. eigenvalues --   -0.48532  -0.48234  -0.47799  -0.47749  -0.47599
 Alpha  occ. eigenvalues --   -0.47379  -0.45848  -0.45127  -0.44046  -0.43076
 Alpha  occ. eigenvalues --   -0.42042  -0.39606  -0.39337  -0.38046  -0.37286
 Alpha  occ. eigenvalues --   -0.37231  -0.36683  -0.36024  -0.35402  -0.34610
 Alpha  occ. eigenvalues --   -0.34391  -0.34345  -0.33272  -0.32963  -0.32846
 Alpha  occ. eigenvalues --   -0.32588  -0.32195  -0.31961  -0.31888  -0.31737
 Alpha  occ. eigenvalues --   -0.31147  -0.28218  -0.26597  -0.25458
 Alpha virt. eigenvalues --    0.03170   0.05258   0.07086   0.08346   0.08553
 Alpha virt. eigenvalues --    0.09170   0.09710   0.10065   0.10809   0.12077
 Alpha virt. eigenvalues --    0.12774   0.13264   0.14509   0.14665   0.15555

 Mulliken charges:
               1
     1  N   -0.310498
     2  C    0.180601
     3  C    0.033825
     4  N   -0.256391
     5  C    0.132412
     6  H    0.029311
     7  N   -0.278680
     8  C    0.125765
     9  H    0.018087
    10  N   -0.289895
    11  C    0.232657
    12  C    0.101359
    13  N   -0.040132
    14  H    0.107733
    15  H    0.089252
    16  H    0.027884
    17  H    0.035680
    18  H    0.026066
    19  N   -0.301603
    20  C    0.238084
    21  C    0.181084
    22  N   -0.115401
    23  H    0.110420
    24  H    0.117433
    25  N   -0.298832
    26  C    0.234876
    27  N   -0.121749
    28  H    0.120072
    29  C    0.147525
    30  O   -0.322942
    31  C    0.001310
    32  N   -0.224700
    33  C    0.126032
    34  H    0.029275
    35  H    0.029311
    36  H    0.026784
    37  H    0.022601
    38  H    0.054062
    39  H    0.063823
    40  H    0.073077
    41  H    0.030588
    42  C   -0.099768
    43  O   -0.274959
    44  C    0.180294
    45  H    0.135446
    46  N   -0.131114
    47  O   -0.352644
    48  C    0.355210
    49  H    0.046544
    50  C    0.174058
    51  C    0.037490
    52  N   -0.291996
    53  H    0.032145
    54  H    0.035707
    55  H    0.019007
    56  H    0.118683
    57  H    0.119787
    58  N   -0.050413
    59  C    0.124761
    60  C    0.233020
    61  N   -0.263363
    62  H    0.047739
    63  C    0.147700
    64  N   -0.301612
    65  H    0.024940
    66  C    0.119832
    67  N   -0.255806
    68  C    0.010971
    69  C    0.175830
    70  N   -0.303655
 Sum of Mulliken charges =  -0.00000

 Dipole moment (field-independent basis, Debye):
    X=              5.8743    Y=              5.9612    Z=              3.2476  Tot=              8.9772
 Quadrupole moment (field-independent basis, Debye-Ang):
   XX=           -138.2836   YY=           -226.5854   ZZ=           -253.9015
   XY=             14.1879   XZ=             19.3670   YZ=             -4.8643

 Normal termination of Gaussian 16 at Sun Jan 21 02:41:18 2018.
