 Gaussian 16, Revision A.03,
 Gaussian 16:  EM64L-G16RevA.03 25-Dec-2016

 ---------------------------------------
 #p wb97xd/cc-pvdz sp scf=(maxcycles=20)
 ---------------------------------------

 ------------------
 Base pair stacking
 ------------------
 Symbolic Z-matrix:
 Charge =  0 Multiplicity = 1

                         Standard orientation:
 ---------------------------------------------------------------------
 Center     Atomic      Atomic             Coordinates (Angstroms)
 Number     Number       Type             X           Y           Z
 ---------------------------------------------------------------------
      1          7           0        4.546801   -1.806340   -1.609394
      2          6           0        5.865335   -1.372297   -2.110470
      3          6           0        2.392449   -1.935611   -1.185910
      4          7           0        2.980005   -3.014822   -0.541844
      5          6           0        4.254412   -2.893743   -0.822751
      6          1           0        5.032582   -3.575828   -0.479019
      7          7           0        0.812073   -0.384143   -1.997278
      8          6           0        1.839109    0.240332   -2.582772
      9          1           0        1.578363    1.132615   -3.150320
     10          7           0        3.133791   -0.070462   -2.572510
     11          6           0        3.345635   -1.181689   -1.848131
     12          6           0        1.058070   -1.499328   -1.275525
     13          7           0        0.034171   -2.124100   -0.690319
     14          1           0        0.169763   -2.953000   -0.146488
     15          1           0       -0.902823   -1.785103   -0.775485
     16          1           0        6.263321   -2.095346   -2.675280
     17          1           0        5.758041   -0.543413   -2.658698
     18          1           0        6.471876   -1.182979   -1.338293
     19          7           0        5.451775    1.592304    0.612490
     20          6           0        4.087283    1.731116    0.695681
     21          6           0        6.382907    2.610311    0.085844
     22          7           0        1.220575    3.626223    0.193345
     23          1           0        0.236342    3.527337    0.337385
     24          1           0        1.536688    4.488340   -0.203559
     25          7           0        3.373631    2.812130    0.313356
     26          6           0        2.078738    2.647268    0.517551
     27          7           0        1.523205    1.511434    1.054922
     28          1           0        0.522668    1.473263    1.175018
     29          6           0        2.238266    0.387076    1.455391
     30          8           0        1.639908   -0.586851    1.928852
     31          6           0        3.630789    0.549278    1.242182
     32          7           0        4.687448   -0.314130    1.496969
     33          6           0        5.744939    0.345454    1.108542
     34          1           0        6.766617   -0.032189    1.161828
     35          1           0        6.878256    2.237606   -0.698077
     36          1           0        5.865628    3.415728   -0.200507
     37          1           0        7.033795    2.869593    0.798527
     38          1           0       -4.551969    1.658250    0.916893
     39          1           0       -4.416166    2.075155    2.623467
     40          1           0       -3.149463    2.558318    1.495027
     41          1           0       -3.738068   -2.683748    2.822465
     42          6           0       -3.185508   -1.782042    2.558215
     43          8           0       -1.062030   -2.835666    2.646642
     44          6           0       -1.759085   -1.838901    2.458598
     45          1           0       -0.151517   -0.643993    2.038771
     46          7           0       -1.158654   -0.643389    2.118766
     47          8           0       -1.162160    1.562744    1.580097
     48          6           0       -1.780858    0.555444    1.875411
     49          1           0       -4.903870   -0.531215    2.389379
     50          6           0       -3.820729   -0.627271    2.326653
     51          6           0       -3.865356    1.787914    1.740194
     52          7           0       -3.156781    0.529866    1.991151
     53          1           0       -6.391770    2.677872   -3.185111
     54          1           0       -4.983153    3.106839   -2.482335
     55          1           0       -6.391238    3.320808   -1.685095
     56          1           0       -3.367482   -3.183195    0.215925
     57          1           0       -5.053310   -2.942933    0.114130
     58          7           0       -4.130147   -2.588499   -0.038702
     59          6           0       -3.926261   -1.376527   -0.559010
     60          6           0       -4.594526    0.722232   -1.459222
     61          7           0       -3.343799    1.172148   -1.653290
     62          1           0       -1.410387    0.546639   -1.386353
     63          6           0       -2.454283    0.261409   -1.263127
     64          7           0       -2.656489   -0.953032   -0.741754
     65          1           0       -7.826797    0.785326   -1.483778
     66          6           0       -6.775941    0.517689   -1.369735
     67          7           0       -6.345406   -0.619972   -0.881820
     68          6           0       -4.963911   -0.503378   -0.932937
     69          6           0       -5.893950    2.728669   -2.319320
     70          7           0       -5.770318    1.377214   -1.739408
 ---------------------------------------------------------------------

 SCF Done:  E(RwB97XD) =  -2048.74747633     A.U. after   15 cycles

 The electronic state is 1-A.
 Alpha  occ. eigenvalues --  -19.25421 -19.21815 -19.20749 -14.52666 -14.51930
 Alpha  occ. eigenvalues --  -14.49332 -14.48250 -14.48141 -14.47393 -14.47000
 Alpha  occ. eigenvalues --  -14.46825 -14.45562 -14.44659 -14.44632 -14.42421
 Alpha  occ. eigenvalues --  -14.42196 -14.41570 -14.40937 -14.40697 -14.40449
 Alpha  occ. eigenvalues --  -10.44994 -10.41429 -10.40138 -10.39841 -10.38435
 Alpha  occ. eigenvalues --  -10.38142 -10.37491 -10.37184 -10.36137 -10.35474
 Alpha  occ. eigenvalues --  -10.34755 -10.34616 -10.33988 -10.33961 -10.33522
 Alpha  occ. eigenvalues --  -10.33122 -10.33106 -10.32994 -10.31424 -10.30707
 Alpha  occ. eigenvalues --  -10.30610 -10.28522 -10.28297  -1.18971  -1.15426
 Alpha  occ. eigenvalues --   -1.13426  -1.12784  -1.11017  -1.10868  -1.09628
 Alpha  occ. eigenvalues --   -1.08826  -1.08695  -1.05093  -1.05033  -1.02052
 Alpha  occ. eigenvalues --   -1.01127  -1.00436  -0.99919  -0.98821  -0.97170
 Alpha  occ. eigenvalues --   -0.97051  -0.96505  -0.92756  -0.90590  -0.87867
 Alpha  occ. eigenvalues --   -0.86048  -0.84560  -0.83637  -0.83158  -0.82914
 Alpha  occ. eigenvalues --   -0.82055  -0.78459  -0.77229  -0.75081  -0.74983
 Alpha  occ. eigenvalues --   -0.73846  -0.72939  -0.72716  -0.70933  -0.70596
 Alpha  occ. eigenvalues --   -0.67653  -0.67005  -0.66166  -0.66108  -0.64628
 Alpha  occ. eigenvalues --   -0.64408  -0.63638  -0.62827  -0.62584  -0.62048
 Alpha  occ. eigenvalues --   -0.60768  -0.60572  -0.60347  -0.59554  -0.59112
 Alpha  occ. eigenvalues --   -0.58996  -0.58557  -0.57303  -0.56430  -0.55883
 Alpha  occ. eigenvalues --   -0.55839  -0.55553  -0.55311  -0.54464  -0.54225
 Alpha  occ. eigenvalues --   -0.53821  -0.53776  -0.53585  -0.53225  -0.53061
 Alpha  occ. eigenvalues --   -0.52853  -0.51970  -0.51511  -0.50569  -0.50421
 Alpha  occ. eigenvalues --   -0.50279  -0.49937  -0.49575  -0.49281  -0.48999
 Alpha  occ. eigenvalues --   -0.48757  -0.48454  -0.48211  -0.48017  -0.47327
 Alpha  occ. eigenvalues --   -0.46777  -0.45847  -0.45687  -0.44828  -0.42591
 Alpha  occ. eigenvalues --   -0.41094  -0.40904  -0.39138  -0.38184  -0.37790
 Alpha  occ. eigenvalues --   -0.37614  -0.37482  -0.36895  -0.35710  -0.34977
 Alpha  occ. eigenvalues --   -0.34577  -0.34200  -0.33312  -0.33271  -0.33119
 Alpha  occ. eigenvalues --   -0.32921  -0.32808  -0.32062  -0.31536  -0.30673
 Alpha  occ. eigenvalues --   -0.30381  -0.30000  -0.26077  -0.25470
 Alpha virt. eigenvalues --    0.02602   0.04359   0.06762   0.08060   0.08670
 Alpha virt. eigenvalues --    0.08991   0.09593   0.10332   0.11030   0.12119
 Alpha virt. eigenvalues --    0.12995   0.13521   0.14178   0.14590   0.14940

 Mulliken charges:
               1
     1  N   -0.303707
     2  C    0.183886
     3  C    0.051790
     4  N   -0.250391
     5  C    0.151681
     6  H    0.026185
     7  N   -0.295190
     8  C    0.128414
     9  H    0.009353
    10  N   -0.283450
    11  C    0.238970
    12  C    0.082685
    13  N   -0.059456
    14  H    0.118218
    15  H    0.087829
    16  H    0.024849
    17  H    0.030903
    18  H    0.014029
    19  N   -0.310576
    20  C    0.262638
    21  C    0.182739
    22  N   -0.123864
    23  H    0.119221
    24  H    0.119150
    25  N   -0.311216
    26  C    0.249097
    27  N   -0.143718
    28  H    0.121017
    29  C    0.191748
    30  O   -0.319265
    31  C   -0.016968
    32  N   -0.221028
    33  C    0.109009
    34  H    0.025849
    35  H    0.023293
    36  H    0.032490
    37  H    0.025721
    38  H    0.058264
    39  H    0.056789
    40  H    0.075609
    41  H    0.017344
    42  C   -0.108141
    43  O   -0.273779
    44  C    0.170074
    45  H    0.131357
    46  N   -0.120883
    47  O   -0.351399
    48  C    0.343602
    49  H    0.045265
    50  C    0.164087
    51  C    0.045252
    52  N   -0.275211
    53  H    0.035014
    54  H    0.042240
    55  H    0.028684
    56  H    0.126002
    57  H    0.115867
    58  N   -0.048362
    59  C    0.081533
    60  C    0.218511
    61  N   -0.261258
    62  H    0.032363
    63  C    0.168290
    64  N   -0.309350
    65  H    0.039103
    66  C    0.136542
    67  N   -0.257713
    68  C    0.029203
    69  C    0.179802
    70  N   -0.306632
 Sum of Mulliken charges =  -0.00000

 Dipole moment (field-independent basis, Debye):
    X=             -6.3764    Y=              7.4874    Z=             -2.4130  Tot=             10.1263
 Quadrupole moment (field-independent basis, Debye-Ang):
   XX=           -150.7157   YY=           -224.3331   ZZ=           -256.2470
   XY=             -4.7996   XZ=            -10.7946   YZ=              4.9294

 Normal termination of Gaussian 16 at Sat Jan 20 12:54:12 2018.
