 Gaussian 16, Revision A.03,
 Gaussian 16:  EM64L-G16RevA.03 25-Dec-2016

 ---------------------------------------
 #p wb97xd/cc-pvdz sp scf=(maxcycles=20)
 ---------------------------------------

 ------------------
 Base pair stacking
 ------------------
 Symbolic Z-matrix:
 Charge =  0 Multiplicity = 1

                         Standard orientation:
 ---------------------------------------------------------------------
 Center     Atomic      Atomic             Coordinates (Angstroms)
 Number     Number       Type             X           Y           Z
 ---------------------------------------------------------------------
      1          7           0       -5.499798   -1.990926    0.596974
      2          6           0       -6.831715   -1.717539    1.170805
      3          6           0       -3.327862   -2.076934    0.261399
      4          7           0       -3.911986   -2.746584   -0.804002
      5          6           0       -5.197119   -2.667959   -0.559188
      6          1           0       -5.976258   -3.090140   -1.194531
      7          7           0       -1.746761   -1.116162    1.724262
      8          6           0       -2.786328   -0.725105    2.468535
      9          1           0       -2.530154   -0.170853    3.370451
     10          7           0       -4.088699   -0.915017    2.266932
     11          6           0       -4.293983   -1.605564    1.133157
     12          6           0       -1.986415   -1.809077    0.589584
     13          7           0       -0.950009   -2.200312   -0.154706
     14          1           0       -1.080517   -2.715472   -1.002523
     15          1           0       -0.008273   -1.991922    0.109619
     16          1           0       -7.298637   -2.581590    1.359435
     17          1           0       -6.729706   -1.202318    2.021254
     18          1           0       -7.373112   -1.182810    0.522005
     19          7           0       -4.519864    2.237916   -0.434077
     20          6           0       -3.147923    2.300110   -0.389703
     21          6           0       -5.439159    3.147113    0.279325
     22          7           0       -0.241238    3.802097    0.775176
     23          1           0        0.745339    3.676770    0.674182
     24          1           0       -0.545484    4.552500    1.362584
     25          7           0       -2.415069    3.195056    0.307470
     26          6           0       -1.117631    3.000424    0.151350
     27          7           0       -0.577171    2.006017   -0.627478
     28          1           0        0.426696    1.931935   -0.688478
     29          6           0       -1.312106    1.074059   -1.353560
     30          8           0       -0.726202    0.216342   -2.025704
     31          6           0       -2.707600    1.270461   -1.195769
     32          7           0       -3.781497    0.575829   -1.735335
     33          6           0       -4.833099    1.183722   -1.256996
     34          1           0       -5.864503    0.903076   -1.473144
     35          1           0       -6.013391    2.619872    0.904690
     36          1           0       -4.907627    3.814495    0.799270
     37          1           0       -6.017370    3.624827   -0.381190
     38          1           0        5.467285    1.697861   -0.063637
     39          1           0        5.489243    2.548195   -1.606716
     40          1           0        4.161426    2.809845   -0.475441
     41          1           0        4.596800   -1.941493   -3.087538
     42          6           0        4.069715   -1.102672   -2.632796
     43          8           0        1.911064   -1.950756   -3.130859
     44          6           0        2.638830   -1.085878   -2.643905
     45          1           0        1.063311    0.067433   -2.030775
     46          7           0        2.072438    0.019949   -2.042579
     47          8           0        2.140909    2.007576   -0.946300
     48          6           0        2.731160    1.070460   -1.454314
     49          1           0        5.828271   -0.057601   -2.031862
     50          6           0        4.740186   -0.092488   -2.066573
     51          6           0        4.856026    2.081548   -0.866895
     52          7           0        4.109025    0.981796   -1.483557
     53          1           0        5.474153    0.676610    4.431059
     54          1           0        4.138368    1.453757    3.907787
     55          1           0        5.607504    1.885186    3.342482
     56          1           0        2.461036   -3.011867   -1.259440
     57          1           0        4.143758   -2.950493   -0.985961
     58          7           0        3.227477   -2.630664   -0.742326
     59          6           0        3.037201   -1.735584    0.229174
     60          6           0        3.725609   -0.254251    1.959342
     61          7           0        2.483885    0.157037    2.264925
     62          1           0        0.550299   -0.167861    1.667999
     63          6           0        1.587648   -0.445464    1.486043
     64          7           0        1.776217   -1.342229    0.512472
     65          1           0        6.947689   -0.425688    2.161865
     66          6           0        5.897506   -0.549673    1.895987
     67          7           0        5.456283   -1.348052    0.954925
     68          6           0        4.080678   -1.170375    0.984574
     69          6           0        5.042057    1.117514    3.644355
     70          7           0        4.904430    0.143015    2.544622
 ---------------------------------------------------------------------

 SCF Done:  E(RwB97XD) =  -2048.73471133     A.U. after   15 cycles

 The electronic state is 1-A.
 Alpha  occ. eigenvalues --  -19.25845 -19.22339 -19.20851 -14.52187 -14.52182
 Alpha  occ. eigenvalues --  -14.49019 -14.48490 -14.47947 -14.47134 -14.47122
 Alpha  occ. eigenvalues --  -14.46905 -14.45235 -14.43941 -14.43930 -14.42228
 Alpha  occ. eigenvalues --  -14.41890 -14.41142 -14.40897 -14.40750 -14.40094
 Alpha  occ. eigenvalues --  -10.45389 -10.41473 -10.40593 -10.39352 -10.38469
 Alpha  occ. eigenvalues --  -10.37737 -10.37166 -10.36867 -10.35408 -10.35170
 Alpha  occ. eigenvalues --  -10.35154 -10.34598 -10.33686 -10.33668 -10.33614
 Alpha  occ. eigenvalues --  -10.33077 -10.32916 -10.32373 -10.31108 -10.31098
 Alpha  occ. eigenvalues --  -10.31019 -10.28352 -10.28187  -1.19406  -1.14932
 Alpha  occ. eigenvalues --   -1.13646  -1.13429  -1.11010  -1.10826  -1.09210
 Alpha  occ. eigenvalues --   -1.08881  -1.08791  -1.04809  -1.04430  -1.02661
 Alpha  occ. eigenvalues --   -1.00696  -1.00154  -0.99975  -0.98769  -0.96831
 Alpha  occ. eigenvalues --   -0.96683  -0.96422  -0.92466  -0.90942  -0.87324
 Alpha  occ. eigenvalues --   -0.85635  -0.84349  -0.83712  -0.83599  -0.82726
 Alpha  occ. eigenvalues --   -0.82129  -0.78794  -0.76695  -0.74866  -0.74505
 Alpha  occ. eigenvalues --   -0.73867  -0.73461  -0.72637  -0.70807  -0.70048
 Alpha  occ. eigenvalues --   -0.67624  -0.66686  -0.66323  -0.66030  -0.64641
 Alpha  occ. eigenvalues --   -0.64057  -0.63734  -0.62838  -0.62450  -0.62000
 Alpha  occ. eigenvalues --   -0.60640  -0.60200  -0.60089  -0.59281  -0.59162
 Alpha  occ. eigenvalues --   -0.58904  -0.58600  -0.56922  -0.56351  -0.56227
 Alpha  occ. eigenvalues --   -0.56068  -0.55230  -0.55003  -0.54662  -0.54386
 Alpha  occ. eigenvalues --   -0.53879  -0.53710  -0.53359  -0.53171  -0.53143
 Alpha  occ. eigenvalues --   -0.52529  -0.52415  -0.51615  -0.50626  -0.50432
 Alpha  occ. eigenvalues --   -0.50079  -0.49778  -0.49669  -0.49506  -0.49119
 Alpha  occ. eigenvalues --   -0.48663  -0.48621  -0.47866  -0.47699  -0.47591
 Alpha  occ. eigenvalues --   -0.46738  -0.46049  -0.44679  -0.44576  -0.43103
 Alpha  occ. eigenvalues --   -0.40836  -0.40396  -0.39459  -0.37903  -0.37493
 Alpha  occ. eigenvalues --   -0.37443  -0.37113  -0.36848  -0.36209  -0.34484
 Alpha  occ. eigenvalues --   -0.34173  -0.33864  -0.33715  -0.33341  -0.33153
 Alpha  occ. eigenvalues --   -0.32838  -0.32452  -0.32267  -0.32016  -0.30657
 Alpha  occ. eigenvalues --   -0.30223  -0.28890  -0.25924  -0.25212
 Alpha virt. eigenvalues --    0.03166   0.04524   0.07466   0.07944   0.08106
 Alpha virt. eigenvalues --    0.09157   0.09508   0.10549   0.11246   0.12124
 Alpha virt. eigenvalues --    0.13121   0.13532   0.14276   0.14599   0.15007

 Mulliken charges:
               1
     1  N   -0.309486
     2  C    0.180364
     3  C    0.059981
     4  N   -0.247126
     5  C    0.132425
     6  H    0.024132
     7  N   -0.296846
     8  C    0.134197
     9  H    0.010374
    10  N   -0.290747
    11  C    0.235442
    12  C    0.093163
    13  N   -0.044235
    14  H    0.115547
    15  H    0.085346
    16  H    0.026179
    17  H    0.032812
    18  H    0.018432
    19  N   -0.309275
    20  C    0.259668
    21  C    0.181838
    22  N   -0.123825
    23  H    0.117332
    24  H    0.119054
    25  N   -0.311646
    26  C    0.248740
    27  N   -0.150101
    28  H    0.119849
    29  C    0.197085
    30  O   -0.324944
    31  C   -0.020223
    32  N   -0.217580
    33  C    0.125032
    34  H    0.019738
    35  H    0.027558
    36  H    0.030348
    37  H    0.024016
    38  H    0.055016
    39  H    0.060320
    40  H    0.073933
    41  H    0.022112
    42  C   -0.111259
    43  O   -0.284229
    44  C    0.150057
    45  H    0.130347
    46  N   -0.100675
    47  O   -0.347631
    48  C    0.338077
    49  H    0.044692
    50  C    0.178688
    51  C    0.043016
    52  N   -0.279779
    53  H    0.033845
    54  H    0.042384
    55  H    0.024285
    56  H    0.127420
    57  H    0.114992
    58  N   -0.040346
    59  C    0.078218
    60  C    0.240155
    61  N   -0.270969
    62  H    0.033150
    63  C    0.165163
    64  N   -0.301438
    65  H    0.035109
    66  C    0.122894
    67  N   -0.260297
    68  C    0.037551
    69  C    0.181583
    70  N   -0.309002
 Sum of Mulliken charges =  -0.00000

 Dipole moment (field-independent basis, Debye):
    X=              6.3742    Y=              6.2064    Z=              4.3504  Tot=              9.9033
 Quadrupole moment (field-independent basis, Debye-Ang):
   XX=           -148.2068   YY=           -225.8356   ZZ=           -253.9697
   XY=              6.2336   XZ=              3.6545   YZ=              6.6213

 Normal termination of Gaussian 16 at Sat Jan 20 19:18:00 2018.
