 Gaussian 16, Revision A.03,
 Gaussian 16:  EM64L-G16RevA.03 25-Dec-2016

 ---------------------------------------
 #p wb97xd/cc-pvdz sp scf=(maxcycles=20)
 ---------------------------------------

 ------------------
 Base pair stacking
 ------------------
 Symbolic Z-matrix:
 Charge =  0 Multiplicity = 1

                         Standard orientation:
 ---------------------------------------------------------------------
 Center     Atomic      Atomic             Coordinates (Angstroms)
 Number     Number       Type             X           Y           Z
 ---------------------------------------------------------------------
      1          7           0       -4.859320   -2.056480    1.159463
      2          6           0       -6.180289   -1.731837    1.731862
      3          6           0       -2.700216   -2.116207    0.744723
      4          7           0       -3.290534   -3.004521   -0.142486
      5          6           0       -4.567692   -2.932992    0.142885
      6          1           0       -5.348541   -3.502958   -0.361447
      7          7           0       -1.114191   -0.823725    1.918175
      8          6           0       -2.142750   -0.338388    2.621087
      9          1           0       -1.880237    0.391351    3.385834
     10          7           0       -3.440801   -0.617821    2.521636
     11          6           0       -3.654596   -1.524247    1.553599
     12          6           0       -1.362215   -1.734080    0.951312
     13          7           0       -0.336810   -2.219716    0.248560
     14          1           0       -0.473802   -2.895388   -0.476651
     15          1           0        0.602780   -1.924896    0.422922
     16          1           0       -6.596022   -2.561064    2.105667
     17          1           0       -6.071662   -1.056771    2.460983
     18          1           0       -6.772075   -1.356915    1.018264
     19          7           0       -5.155423    1.844810   -0.469762
     20          6           0       -3.787934    1.975301   -0.501579
     21          6           0       -6.087619    2.784255    0.185324
     22          7           0       -0.913585    3.731534    0.344297
     23          1           0        0.072628    3.641720    0.208074
     24          1           0       -1.229620    4.527876    0.860700
     25          7           0       -3.071861    2.975623    0.055791
     26          6           0       -1.774402    2.825316   -0.143230
     27          7           0       -1.218672    1.776366   -0.834881
     28          1           0       -0.216064    1.742693   -0.937873
     29          6           0       -1.936207    0.735988   -1.416797
     30          8           0       -1.337426   -0.163255   -2.019765
     31          6           0       -3.331513    0.883666   -1.211363
     32          7           0       -4.391123    0.083933   -1.617001
     33          6           0       -5.450267    0.691879   -1.155675
     34          1           0       -6.474411    0.341190   -1.287651
     35          1           0       -6.605130    2.304022    0.892688
     36          1           0       -5.568560    3.529520    0.601759
     37          1           0       -6.718856    3.157796   -0.493508
     38          1           0        4.852839    1.814529   -0.545721
     39          1           0        4.761449    2.487305   -2.171659
     40          1           0        3.473978    2.811633   -1.010376
     41          1           0        4.037150   -2.176288   -3.105908
     42          6           0        3.488276   -1.317354   -2.719646
     43          8           0        1.356256   -2.315214   -3.012705
     44          6           0        2.059385   -1.368464   -2.660488
     45          1           0        0.455364   -0.228421   -2.098608
     46          7           0        1.464044   -0.229946   -2.155930
     47          8           0        1.478636    1.868709   -1.288376
     48          6           0        2.093220    0.909186   -1.719955
     49          1           0        5.215540   -0.131061   -2.325875
     50          6           0        4.130275   -0.220171   -2.301748
     51          6           0        4.187094    2.077266   -1.354313
     52          7           0        3.471118    0.881986   -1.808651
     53          1           0        6.106578    1.760597    3.883887
     54          1           0        4.714688    2.364620    3.283969
     55          1           0        6.137825    2.737968    2.577291
     56          1           0        3.065716   -3.089128   -0.838278
     57          1           0        4.752502   -2.905850   -0.661517
     58          7           0        3.831399   -2.582907   -0.441290
     59          6           0        3.634041   -1.524120    0.346868
     60          6           0        4.313397    0.293600    1.723846
     61          7           0        3.065304    0.704781    2.002466
     62          1           0        1.128916    0.189760    1.571463
     63          6           0        2.171088   -0.074764    1.397815
     64          7           0        2.366772   -1.135674    0.608026
     65          1           0        7.545393    0.298722    1.803428
     66          6           0        6.493307    0.081805    1.616354
     67          7           0        6.056770   -0.902468    0.869135
     68          6           0        4.676164   -0.779605    0.928767
     69          6           0        5.623289    2.021189    3.048110
     70          7           0        5.492467    0.845967    2.165075
 ---------------------------------------------------------------------

 SCF Done:  E(RwB97XD) =  -2048.74115907     A.U. after   15 cycles

 The electronic state is 1-A.
 Alpha  occ. eigenvalues --  -19.25534 -19.22281 -19.20785 -14.52530 -14.52054
 Alpha  occ. eigenvalues --  -14.49210 -14.48274 -14.47806 -14.47601 -14.47036
 Alpha  occ. eigenvalues --  -14.46853 -14.45480 -14.44441 -14.44419 -14.42208
 Alpha  occ. eigenvalues --  -14.42127 -14.41401 -14.40812 -14.40682 -14.40279
 Alpha  occ. eigenvalues --  -10.45108 -10.41441 -10.40168 -10.39858 -10.38438
 Alpha  occ. eigenvalues --  -10.38025 -10.37302 -10.37017 -10.35912 -10.35288
 Alpha  occ. eigenvalues --  -10.34880 -10.34688 -10.33895 -10.33840 -10.33504
 Alpha  occ. eigenvalues --  -10.33050 -10.32984 -10.32795 -10.31311 -10.30881
 Alpha  occ. eigenvalues --  -10.30828 -10.28457 -10.28197  -1.19109  -1.15280
 Alpha  occ. eigenvalues --   -1.13419  -1.13181  -1.10948  -1.10841  -1.09456
 Alpha  occ. eigenvalues --   -1.08918  -1.08740  -1.04925  -1.04858  -1.02297
 Alpha  occ. eigenvalues --   -1.01009  -1.00253  -0.99938  -0.98793  -0.96982
 Alpha  occ. eigenvalues --   -0.96966  -0.96465  -0.92590  -0.90749  -0.87693
 Alpha  occ. eigenvalues --   -0.85925  -0.84478  -0.83610  -0.83342  -0.82855
 Alpha  occ. eigenvalues --   -0.82045  -0.78608  -0.77071  -0.74942  -0.74888
 Alpha  occ. eigenvalues --   -0.73848  -0.73148  -0.72624  -0.70825  -0.70432
 Alpha  occ. eigenvalues --   -0.67642  -0.66898  -0.66253  -0.66024  -0.64653
 Alpha  occ. eigenvalues --   -0.64296  -0.63719  -0.62824  -0.62469  -0.62035
 Alpha  occ. eigenvalues --   -0.60690  -0.60448  -0.60253  -0.59414  -0.59156
 Alpha  occ. eigenvalues --   -0.59013  -0.58575  -0.57134  -0.56349  -0.55996
 Alpha  occ. eigenvalues --   -0.55915  -0.55409  -0.55162  -0.54365  -0.54125
 Alpha  occ. eigenvalues --   -0.53805  -0.53737  -0.53641  -0.53366  -0.53218
 Alpha  occ. eigenvalues --   -0.52797  -0.52207  -0.51513  -0.50550  -0.50422
 Alpha  occ. eigenvalues --   -0.50172  -0.49841  -0.49593  -0.49254  -0.49031
 Alpha  occ. eigenvalues --   -0.48718  -0.48637  -0.48244  -0.48060  -0.47443
 Alpha  occ. eigenvalues --   -0.46714  -0.45963  -0.45601  -0.44648  -0.42616
 Alpha  occ. eigenvalues --   -0.40908  -0.40755  -0.39234  -0.38175  -0.37618
 Alpha  occ. eigenvalues --   -0.37546  -0.37457  -0.36819  -0.35982  -0.34708
 Alpha  occ. eigenvalues --   -0.34385  -0.34132  -0.33458  -0.33194  -0.33128
 Alpha  occ. eigenvalues --   -0.32962  -0.32740  -0.32035  -0.31947  -0.30647
 Alpha  occ. eigenvalues --   -0.30270  -0.29311  -0.26052  -0.25283
 Alpha virt. eigenvalues --    0.02754   0.04227   0.07151   0.08116   0.08743
 Alpha virt. eigenvalues --    0.08907   0.09529   0.10406   0.11185   0.12064
 Alpha virt. eigenvalues --    0.12869   0.13418   0.14256   0.14566   0.15155

 Mulliken charges:
               1
     1  N   -0.305784
     2  C    0.182130
     3  C    0.052983
     4  N   -0.248863
     5  C    0.146522
     6  H    0.024735
     7  N   -0.295720
     8  C    0.131415
     9  H    0.009701
    10  N   -0.286615
    11  C    0.239113
    12  C    0.084940
    13  N   -0.052047
    14  H    0.117979
    15  H    0.086019
    16  H    0.025544
    17  H    0.031740
    18  H    0.014810
    19  N   -0.310441
    20  C    0.262229
    21  C    0.182517
    22  N   -0.124633
    23  H    0.118552
    24  H    0.119122
    25  N   -0.312421
    26  C    0.251010
    27  N   -0.147072
    28  H    0.120461
    29  C    0.191759
    30  O   -0.320753
    31  C   -0.016019
    32  N   -0.219439
    33  C    0.114047
    34  H    0.023187
    35  H    0.024697
    36  H    0.031750
    37  H    0.025082
    38  H    0.056818
    39  H    0.058544
    40  H    0.074910
    41  H    0.017797
    42  C   -0.103842
    43  O   -0.274728
    44  C    0.165270
    45  H    0.129687
    46  N   -0.113164
    47  O   -0.351484
    48  C    0.342118
    49  H    0.043713
    50  C    0.164286
    51  C    0.044884
    52  N   -0.276635
    53  H    0.034705
    54  H    0.042501
    55  H    0.027029
    56  H    0.124604
    57  H    0.114635
    58  N   -0.045376
    59  C    0.081117
    60  C    0.228954
    61  N   -0.265573
    62  H    0.032357
    63  C    0.166816
    64  N   -0.307884
    65  H    0.037581
    66  C    0.131584
    67  N   -0.257999
    68  C    0.030354
    69  C    0.180629
    70  N   -0.306447
 Sum of Mulliken charges =  -0.00000

 Dipole moment (field-independent basis, Debye):
    X=              6.3188    Y=              6.9448    Z=              3.5057  Tot=             10.0224
 Quadrupole moment (field-independent basis, Debye-Ang):
   XX=           -149.9505   YY=           -224.0030   ZZ=           -256.1286
   XY=              6.9862   XZ=             -5.5120   YZ=              1.8507

 Normal termination of Gaussian 16 at Sat Jan 20 16:30:25 2018.
