 Gaussian 16, Revision A.03,
 Gaussian 16:  EM64L-G16RevA.03 25-Dec-2016

 ---------------------------------------
 #p wb97xd/cc-pvdz sp scf=(maxcycles=20)
 ---------------------------------------

 ------------------
 Base pair stacking
 ------------------
 Symbolic Z-matrix:
 Charge =  0 Multiplicity = 1

                         Standard orientation:
 ---------------------------------------------------------------------
 Center     Atomic      Atomic             Coordinates (Angstroms)
 Number     Number       Type             X           Y           Z
 ---------------------------------------------------------------------
      1          7           0        4.868290   -1.501760   -1.584086
      2          6           0        6.202881   -0.958145   -1.902476
      3          6           0        2.697263   -1.737750   -1.322804
      4          7           0        3.270982   -2.926780   -0.896445
      5          6           0        4.555988   -2.737014   -1.070927
      6          1           0        5.328159   -3.471400   -0.839903
      7          7           0        1.131833   -0.059341   -1.866201
      8          6           0        2.176093    0.686187   -2.242084
      9          1           0        1.928308    1.678742   -2.615848
     10          7           0        3.474389    0.391101   -2.225651
     11          6           0        3.669325   -0.849743   -1.749500
     12          6           0        1.361087   -1.303200   -1.391521
     13          7           0        0.319978   -2.048914   -1.015805
     14          1           0        0.442808   -2.975455   -0.658513
     15          1           0       -0.617752   -1.707072   -1.078629
     16          1           0        6.645440   -1.537171   -2.587347
     17          1           0        6.108533   -0.030438   -2.262439
     18          1           0        6.762810   -0.937143   -1.074199
     19          7           0        5.157745    1.528061    0.894286
     20          6           0        3.788430    1.636993    0.928440
     21          6           0        6.087865    2.588628    0.457484
     22          7           0        0.905426    3.501222    0.404351
     23          1           0       -0.081512    3.376818    0.502944
     24          1           0        1.219207    4.388071    0.064129
     25          7           0        3.068379    2.722447    0.571578
     26          6           0        1.770067    2.523309    0.714202
     27          7           0        1.217169    1.351567    1.171190
     28          1           0        0.213636    1.288694    1.248238
     29          6           0        1.938816    0.221939    1.544058
     30          8           0        1.342339   -0.785700    1.943575
     31          6           0        3.335071    0.420692    1.396289
     32          7           0        4.398377   -0.434619    1.650739
     33          6           0        5.456635    0.263403    1.339189
     34          1           0        6.482970   -0.097306    1.415323
     35          1           0        6.621701    2.265376   -0.323112
     36          1           0        5.565846    3.397699    0.190700
     37          1           0        6.704296    2.823618    1.208218
     38          1           0       -4.849402    1.391710    0.792440
     39          1           0       -4.790435    1.724203    2.521782
     40          1           0       -3.490011    2.287412    1.471519
     41          1           0       -4.022436   -3.025181    2.511080
     42          6           0       -3.478564   -2.101097    2.314871
     43          8           0       -1.338946   -3.118017    2.437436
     44          6           0       -2.048434   -2.126193    2.270938
     45          1           0       -0.450484   -0.881776    1.977197
     46          7           0       -1.459801   -0.904025    2.015888
     47          8           0       -1.487489    1.326089    1.588065
     48          6           0       -2.096494    0.293753    1.807315
     49          1           0       -5.214350   -0.875639    2.138444
     50          6           0       -4.127819   -0.948156    2.115339
     51          6           0       -4.199008    1.492359    1.648551
     52          7           0       -3.475109    0.236672    1.865289
     53          1           0       -6.058079    3.129991   -2.769397
     54          1           0       -4.698535    3.406467   -1.910742
     55          1           0       -6.151716    3.429821   -1.167918
     56          1           0       -3.103442   -3.307751   -0.557789
     57          1           0       -4.785844   -3.064658   -0.701126
     58          7           0       -3.863162   -2.677976   -0.720121
     59          6           0       -3.656153   -1.380023   -0.951738
     60          6           0       -4.317348    0.859204   -1.410457
     61          7           0       -3.067365    1.350711   -1.430126
     62          1           0       -1.138883    0.697616   -1.195536
     63          6           0       -2.181898    0.383961   -1.197234
     64          7           0       -2.387241   -0.916614   -0.965030
     65          1           0       -7.544176    0.900079   -1.605527
     66          6           0       -6.495792    0.622475   -1.492537
     67          7           0       -6.069205   -0.590765   -1.240025
     68          6           0       -4.689619   -0.454686   -1.185450
     69          6           0       -5.608922    2.994496   -1.886279
     70          7           0       -5.489357    1.550065   -1.608209
 ---------------------------------------------------------------------

 SCF Done:  E(RwB97XD) =  -2048.75075467     A.U. after   15 cycles

 The electronic state is 1-A.
 Alpha  occ. eigenvalues --  -19.25334 -19.21692 -19.20616 -14.52733 -14.51886
 Alpha  occ. eigenvalues --  -14.49095 -14.48562 -14.48225 -14.47322 -14.46781
 Alpha  occ. eigenvalues --  -14.46656 -14.45654 -14.44598 -14.44592 -14.42612
 Alpha  occ. eigenvalues --  -14.41991 -14.41306 -14.41124 -14.41046 -14.40625
 Alpha  occ. eigenvalues --  -10.44937 -10.41211 -10.40174 -10.39736 -10.38260
 Alpha  occ. eigenvalues --  -10.38189 -10.37462 -10.37159 -10.36142 -10.35670
 Alpha  occ. eigenvalues --  -10.34521 -10.34481 -10.34120 -10.33829 -10.33753
 Alpha  occ. eigenvalues --  -10.33348 -10.33282 -10.32932 -10.31213 -10.31080
 Alpha  occ. eigenvalues --  -10.30612 -10.28517 -10.28296  -1.18939  -1.15513
 Alpha  occ. eigenvalues --   -1.13233  -1.12666  -1.11159  -1.10790  -1.09584
 Alpha  occ. eigenvalues --   -1.08775  -1.08553  -1.05263  -1.05035  -1.01993
 Alpha  occ. eigenvalues --   -1.01194  -1.00635  -0.99727  -0.98601  -0.97173
 Alpha  occ. eigenvalues --   -0.96827  -0.96783  -0.92955  -0.90526  -0.87908
 Alpha  occ. eigenvalues --   -0.86130  -0.84344  -0.83904  -0.83105  -0.82724
 Alpha  occ. eigenvalues --   -0.82353  -0.78369  -0.77270  -0.75090  -0.74777
 Alpha  occ. eigenvalues --   -0.73647  -0.72971  -0.72867  -0.71150  -0.70615
 Alpha  occ. eigenvalues --   -0.67459  -0.67006  -0.66381  -0.66073  -0.64461
 Alpha  occ. eigenvalues --   -0.64389  -0.63588  -0.62830  -0.62643  -0.61863
 Alpha  occ. eigenvalues --   -0.61150  -0.60706  -0.60531  -0.59669  -0.59042
 Alpha  occ. eigenvalues --   -0.58819  -0.58394  -0.57347  -0.56669  -0.55973
 Alpha  occ. eigenvalues --   -0.55767  -0.55680  -0.55435  -0.54297  -0.54074
 Alpha  occ. eigenvalues --   -0.53850  -0.53784  -0.53472  -0.53092  -0.53046
 Alpha  occ. eigenvalues --   -0.52950  -0.51895  -0.51808  -0.50638  -0.50431
 Alpha  occ. eigenvalues --   -0.50255  -0.50093  -0.49310  -0.49105  -0.48935
 Alpha  occ. eigenvalues --   -0.48775  -0.48343  -0.48238  -0.47980  -0.47202
 Alpha  occ. eigenvalues --   -0.47009  -0.45906  -0.45541  -0.44825  -0.42621
 Alpha  occ. eigenvalues --   -0.41224  -0.40946  -0.39024  -0.38120  -0.37828
 Alpha  occ. eigenvalues --   -0.37403  -0.37282  -0.37103  -0.35852  -0.34916
 Alpha  occ. eigenvalues --   -0.34496  -0.34153  -0.33530  -0.33317  -0.33018
 Alpha  occ. eigenvalues --   -0.32737  -0.32677  -0.31927  -0.31556  -0.30873
 Alpha  occ. eigenvalues --   -0.30586  -0.30049  -0.26135  -0.25378
 Alpha virt. eigenvalues --    0.03151   0.03969   0.06876   0.07767   0.08725
 Alpha virt. eigenvalues --    0.09055   0.09721   0.10256   0.10907   0.12445
 Alpha virt. eigenvalues --    0.12878   0.13637   0.14211   0.14432   0.14662

 Mulliken charges:
               1
     1  N   -0.302918
     2  C    0.180035
     3  C    0.061458
     4  N   -0.253710
     5  C    0.146998
     6  H    0.026383
     7  N   -0.289212
     8  C    0.127442
     9  H    0.010646
    10  N   -0.279596
    11  C    0.235855
    12  C    0.078584
    13  N   -0.052398
    14  H    0.114915
    15  H    0.084838
    16  H    0.027009
    17  H    0.032733
    18  H    0.013520
    19  N   -0.305627
    20  C    0.262665
    21  C    0.184392
    22  N   -0.122653
    23  H    0.120087
    24  H    0.118249
    25  N   -0.305278
    26  C    0.238242
    27  N   -0.134295
    28  H    0.119055
    29  C    0.181228
    30  O   -0.320886
    31  C   -0.015413
    32  N   -0.217527
    33  C    0.105345
    34  H    0.024489
    35  H    0.021053
    36  H    0.032405
    37  H    0.024449
    38  H    0.053920
    39  H    0.055535
    40  H    0.076091
    41  H    0.020595
    42  C   -0.098610
    43  O   -0.271163
    44  C    0.168473
    45  H    0.129820
    46  N   -0.116096
    47  O   -0.347392
    48  C    0.336628
    49  H    0.045155
    50  C    0.158618
    51  C    0.050306
    52  N   -0.275270
    53  H    0.035861
    54  H    0.041689
    55  H    0.027160
    56  H    0.124871
    57  H    0.116851
    58  N   -0.054012
    59  C    0.092058
    60  C    0.201332
    61  N   -0.258717
    62  H    0.025524
    63  C    0.168734
    64  N   -0.308061
    65  H    0.037114
    66  C    0.127588
    67  N   -0.252280
    68  C    0.033638
    69  C    0.180255
    70  N   -0.298779
 Sum of Mulliken charges =  -0.00000

 Dipole moment (field-independent basis, Debye):
    X=             -6.3324    Y=              7.2247    Z=             -2.5787  Tot=              9.9471
 Quadrupole moment (field-independent basis, Debye-Ang):
   XX=           -150.3551   YY=           -225.5380   ZZ=           -257.4153
   XY=             -4.7788   XZ=             -8.5349   YZ=              9.3141

 Normal termination of Gaussian 16 at Sat Jan 20 08:30:37 2018.
