 Gaussian 16, Revision A.03,
 Gaussian 16:  EM64L-G16RevA.03 25-Dec-2016

 ---------------------------------------
 #p wb97xd/cc-pvdz sp scf=(maxcycles=20)
 ---------------------------------------

 ------------------
 Base pair stacking
 ------------------
 Symbolic Z-matrix:
 Charge =  0 Multiplicity = 1

                         Standard orientation:
 ---------------------------------------------------------------------
 Center     Atomic      Atomic             Coordinates (Angstroms)
 Number     Number       Type             X           Y           Z
 ---------------------------------------------------------------------
      1          7           0       -5.810627   -1.815314    0.491121
      2          6           0       -7.147288   -1.488448    1.024502
      3          6           0       -3.634744   -1.972649    0.211677
      4          7           0       -4.212615   -2.653719   -0.849897
      5          6           0       -5.500377   -2.531665   -0.639053
      6          1           0       -6.276139   -2.948259   -1.282155
      7          7           0       -2.061573   -1.018612    1.687445
      8          6           0       -3.106735   -0.577958    2.395297
      9          1           0       -2.856060   -0.007193    3.288416
     10          7           0       -4.408924   -0.735762    2.166622
     11          6           0       -4.607188   -1.450429    1.046634
     12          6           0       -2.294256   -1.734679    0.565760
     13          7           0       -1.252252   -2.175412   -0.142180
     14          1           0       -1.377514   -2.709268   -0.979157
     15          1           0       -0.311414   -1.987101    0.139772
     16          1           0       -7.643762   -2.333338    1.224143
     17          1           0       -7.050588   -0.953641    1.863406
     18          1           0       -7.657080   -0.956064    0.348723
     19          7           0       -4.192121    2.354154   -0.581757
     20          6           0       -2.820400    2.378109   -0.505150
     21          6           0       -5.101139    3.308257    0.084621
     22          7           0        0.100413    3.826864    0.691380
     23          1           0        1.085015    3.670582    0.618110
     24          1           0       -0.195653    4.601252    1.251198
     25          7           0       -2.078493    3.270110    0.186190
     26          6           0       -0.783955    3.034167    0.067337
     27          7           0       -0.254444    2.004043   -0.671556
     28          1           0        0.747990    1.899542   -0.705775
     29          6           0       -0.998826    1.074342   -1.390877
     30          8           0       -0.422435    0.182363   -2.025610
     31          6           0       -2.391336    1.314908   -1.272803
     32          7           0       -3.471933    0.637105   -1.820328
     33          6           0       -4.516390    1.287597   -1.384237
     34          1           0       -5.550119    1.030956   -1.618363
     35          1           0       -5.705417    2.814757    0.709216
     36          1           0       -4.562840    3.973869    0.599853
     37          1           0       -5.649104    3.784407   -0.602281
     38          1           0        5.763137    1.537772    0.049324
     39          1           0        5.846971    2.345248   -1.514517
     40          1           0        4.500705    2.675296   -0.423641
     41          1           0        4.858816   -2.155224   -2.898638
     42          6           0        4.345850   -1.289672   -2.479217
     43          8           0        2.175762   -2.088535   -3.008045
     44          6           0        2.916750   -1.232110   -2.526109
     45          1           0        1.361544   -0.017942   -1.982562
     46          7           0        2.368822   -0.094682   -1.968182
     47          8           0        2.469371    1.918971   -0.923056
     48          6           0        3.043840    0.951943   -1.391577
     49          1           0        6.119433   -0.279703   -1.862642
     50          6           0        5.031944   -0.284266   -1.923298
     51          6           0        5.182810    1.917077   -0.778567
     52          7           0        4.418804    0.823010   -1.384442
     53          1           0        5.142000    0.638389    4.523845
     54          1           0        3.842504    1.439178    3.947525
     55          1           0        5.336794    1.812870    3.407564
     56          1           0        2.158952   -3.114020   -1.140638
     57          1           0        3.835723   -3.093635   -0.827376
     58          7           0        2.923652   -2.741194   -0.614927
     59          6           0        2.736552   -1.815169    0.327751
     60          6           0        3.426537   -0.308134    2.034945
     61          7           0        2.190459    0.146705    2.298873
     62          1           0        0.263014   -0.138502    1.663092
     63          6           0        1.295819   -0.450581    1.514161
     64          7           0        1.481227   -1.378291    0.569406
     65          1           0        6.636421   -0.566496    2.321442
     66          6           0        5.589719   -0.667386    2.033037
     67          7           0        5.147898   -1.477832    1.102638
     68          6           0        3.777786   -1.260001    1.093614
     69          6           0        4.741992    1.070158    3.715409
     70          7           0        4.602175    0.070742    2.638545
 ---------------------------------------------------------------------

 SCF Done:  E(RwB97XD) =  -2048.73499222     A.U. after   15 cycles

 The electronic state is 1-A.
 Alpha  occ. eigenvalues --  -19.26007 -19.21960 -19.20852 -14.52401 -14.51996
 Alpha  occ. eigenvalues --  -14.48935 -14.48639 -14.47971 -14.47154 -14.46895
 Alpha  occ. eigenvalues --  -14.46611 -14.45048 -14.43632 -14.43551 -14.42207
 Alpha  occ. eigenvalues --  -14.41925 -14.41087 -14.41039 -14.40805 -14.40096
 Alpha  occ. eigenvalues --  -10.45576 -10.41452 -10.40591 -10.39050 -10.38459
 Alpha  occ. eigenvalues --  -10.37647 -10.37558 -10.36643 -10.35359 -10.35200
 Alpha  occ. eigenvalues --  -10.35165 -10.34532 -10.33829 -10.33577 -10.33504
 Alpha  occ. eigenvalues --  -10.33169 -10.32962 -10.32084 -10.31106 -10.31016
 Alpha  occ. eigenvalues --  -10.30994 -10.28291 -10.28278  -1.19559  -1.14721
 Alpha  occ. eigenvalues --   -1.13595  -1.13411  -1.11157  -1.10767  -1.09369
 Alpha  occ. eigenvalues --   -1.08783  -1.08507  -1.04852  -1.04056  -1.02725
 Alpha  occ. eigenvalues --   -1.00461  -1.00213  -0.99964  -0.98739  -0.96786
 Alpha  occ. eigenvalues --   -0.96736  -0.96116  -0.92500  -0.91065  -0.87100
 Alpha  occ. eigenvalues --   -0.85450  -0.84279  -0.83822  -0.83759  -0.82646
 Alpha  occ. eigenvalues --   -0.82223  -0.78941  -0.76420  -0.74818  -0.74207
 Alpha  occ. eigenvalues --   -0.73852  -0.73539  -0.72722  -0.70882  -0.69765
 Alpha  occ. eigenvalues --   -0.67591  -0.66636  -0.66179  -0.66112  -0.64621
 Alpha  occ. eigenvalues --   -0.63961  -0.63563  -0.62837  -0.62521  -0.61959
 Alpha  occ. eigenvalues --   -0.60624  -0.60156  -0.59846  -0.59454  -0.58893
 Alpha  occ. eigenvalues --   -0.58813  -0.58584  -0.56845  -0.56415  -0.56330
 Alpha  occ. eigenvalues --   -0.56139  -0.55235  -0.55051  -0.54750  -0.54464
 Alpha  occ. eigenvalues --   -0.53868  -0.53664  -0.53159  -0.53075  -0.52914
 Alpha  occ. eigenvalues --   -0.52599  -0.52258  -0.51706  -0.50723  -0.50378
 Alpha  occ. eigenvalues --   -0.50123  -0.49891  -0.49663  -0.49447  -0.49082
 Alpha  occ. eigenvalues --   -0.48663  -0.48571  -0.47792  -0.47630  -0.47513
 Alpha  occ. eigenvalues --   -0.46815  -0.45935  -0.44802  -0.44001  -0.43259
 Alpha  occ. eigenvalues --   -0.40942  -0.40159  -0.39572  -0.37500  -0.37445
 Alpha  occ. eigenvalues --   -0.37396  -0.36946  -0.36882  -0.36046  -0.34456
 Alpha  occ. eigenvalues --   -0.34093  -0.33745  -0.33592  -0.33349  -0.33211
 Alpha  occ. eigenvalues --   -0.32728  -0.32484  -0.32120  -0.32043  -0.30739
 Alpha  occ. eigenvalues --   -0.30274  -0.28862  -0.25742  -0.25389
 Alpha virt. eigenvalues --    0.03083   0.04692   0.07513   0.08023   0.08097
 Alpha virt. eigenvalues --    0.09028   0.09572   0.10605   0.11216   0.12133
 Alpha virt. eigenvalues --    0.13289   0.13717   0.14301   0.14597   0.14997

 Mulliken charges:
               1
     1  N   -0.310364
     2  C    0.180308
     3  C    0.059957
     4  N   -0.247937
     5  C    0.128114
     6  H    0.024626
     7  N   -0.295101
     8  C    0.134486
     9  H    0.011226
    10  N   -0.291640
    11  C    0.232657
    12  C    0.095554
    13  N   -0.043522
    14  H    0.114241
    15  H    0.089055
    16  H    0.026501
    17  H    0.033208
    18  H    0.019735
    19  N   -0.309142
    20  C    0.258582
    21  C    0.181396
    22  N   -0.123160
    23  H    0.116397
    24  H    0.118883
    25  N   -0.310950
    26  C    0.247236
    27  N   -0.150200
    28  H    0.120900
    29  C    0.195339
    30  O   -0.326412
    31  C   -0.020812
    32  N   -0.218447
    33  C    0.129703
    34  H    0.020222
    35  H    0.029036
    36  H    0.029705
    37  H    0.023501
    38  H    0.054484
    39  H    0.060842
    40  H    0.074042
    41  H    0.024956
    42  C   -0.112036
    43  O   -0.291161
    44  C    0.140706
    45  H    0.133498
    46  N   -0.103139
    47  O   -0.345760
    48  C    0.340821
    49  H    0.045553
    50  C    0.191878
    51  C    0.042555
    52  N   -0.280670
    53  H    0.033406
    54  H    0.042086
    55  H    0.023092
    56  H    0.129514
    57  H    0.114058
    58  N   -0.037964
    59  C    0.086919
    60  C    0.246218
    61  N   -0.273470
    62  H    0.033507
    63  C    0.163620
    64  N   -0.302100
    65  H    0.033885
    66  C    0.120129
    67  N   -0.259491
    68  C    0.025538
    69  C    0.181539
    70  N   -0.309937
 Sum of Mulliken charges =  -0.00000

 Dipole moment (field-independent basis, Debye):
    X=              6.4982    Y=              6.1554    Z=              4.2342  Tot=              9.9017
 Quadrupole moment (field-independent basis, Debye-Ang):
   XX=           -146.6008   YY=           -225.8283   ZZ=           -254.1126
   XY=              5.9895   XZ=              7.0172   YZ=              5.8470

 Normal termination of Gaussian 16 at Sat Jan 20 18:29:34 2018.
