 Gaussian 16, Revision A.03,
 Gaussian 16:  EM64L-G16RevA.03 25-Dec-2016

 ---------------------------------------
 #p wb97xd/cc-pvdz sp scf=(maxcycles=20)
 ---------------------------------------

 ------------------
 Base pair stacking
 ------------------
 Symbolic Z-matrix:
 Charge =  0 Multiplicity = 1

                         Standard orientation:
 ---------------------------------------------------------------------
 Center     Atomic      Atomic             Coordinates (Angstroms)
 Number     Number       Type             X           Y           Z
 ---------------------------------------------------------------------
      1          7           0       -7.182915   -1.017475    0.084382
      2          6           0       -8.509864   -0.409859    0.303488
      3          6           0       -5.026644   -1.446663    0.144392
      4          7           0       -5.591966   -2.412735   -0.675263
      5          6           0       -6.868412   -2.115499   -0.678607
      6          1           0       -7.632403   -2.668761   -1.225577
      7          7           0       -3.478480   -0.161492    1.375043
      8          6           0       -4.517920    0.590135    1.752125
      9          1           0       -4.275484    1.420595    2.413813
     10          7           0       -5.805819    0.470512    1.436056
     11          6           0       -5.994900   -0.579627    0.620042
     12          6           0       -3.701622   -1.210662    0.553740
     13          7           0       -2.665318   -1.962128    0.176208
     14          1           0       -2.783939   -2.748629   -0.430897
     15          1           0       -1.735551   -1.764690    0.487178
     16          1           0       -9.120462   -1.081687    0.722988
     17          1           0       -8.419532    0.380615    0.908569
     18          1           0       -8.892539   -0.115203   -0.572145
     19          7           0       -2.631674    2.277434   -1.453750
     20          6           0       -1.278452    2.216408   -1.223287
     21          6           0       -3.491938    3.446707   -1.182729
     22          7           0        1.655603    3.713124   -0.121963
     23          1           0        2.620403    3.467433   -0.032319
     24          1           0        1.392872    4.633510    0.168859
     25          7           0       -0.513446    3.206402   -0.714627
     26          6           0        0.753899    2.847918   -0.610083
     27          7           0        1.237150    1.614769   -0.975193
     28          1           0        2.221477    1.428190   -0.860077
     29          6           0        0.468296    0.581058   -1.500713
     30          8           0        1.002957   -0.494357   -1.797947
     31          6           0       -0.895470    0.951265   -1.618949
     32          7           0       -1.986303    0.232497   -2.088357
     33          6           0       -2.991510    1.057226   -1.971690
     34          1           0       -4.020280    0.825555   -2.249593
     35          1           0       -4.201184    3.195491   -0.524953
     36          1           0       -2.936189    4.186442   -0.805610
     37          1           0       -3.919274    3.752415   -2.032865
     38          1           0        7.076608    0.907856    0.557552
     39          1           0        7.392051    1.236901   -1.144469
     40          1           0        5.992655    1.961223   -0.351745
     41          1           0        6.062783   -3.381325   -1.371604
     42          6           0        5.608212   -2.396279   -1.265412
     43          8           0        3.424245   -3.141987   -1.814345
     44          6           0        4.204112   -2.244522   -1.496301
     45          1           0        2.743462   -0.811066   -1.489896
     46          7           0        3.731013   -0.957862   -1.335243
     47          8           0        3.947823    1.253793   -0.867491
     48          6           0        4.457031    0.153167   -0.985891
     49          1           0        7.414027   -1.393544   -0.736883
     50          6           0        6.342729   -1.331324   -0.923403
     51          6           0        6.620077    1.083931   -0.405066
     52          7           0        5.803650   -0.073848   -0.780210
     53          1           0        3.609597    1.793778    4.310741
     54          1           0        2.470214    2.439886    3.337886
     55          1           0        4.038871    2.467759    2.887752
     56          1           0        0.677953   -3.479484   -0.009408
     57          1           0        2.312494   -3.488588    0.478755
     58          7           0        1.435519   -3.008161    0.442368
     59          6           0        1.284066   -1.792996    0.973036
     60          6           0        2.006646    0.163376    2.118564
     61          7           0        0.817361    0.784653    2.054877
     62          1           0       -1.070263    0.452731    1.328732
     63          6           0       -0.074286    0.022527    1.424785
     64          7           0        0.075443   -1.194815    0.892574
     65          1           0        5.125769   -0.243006    2.865625
     66          6           0        4.102486   -0.352643    2.505319
     67          7           0        3.644955   -1.403222    1.869223
     68          6           0        2.317168   -1.089097    1.618139
     69          6           0        3.334375    1.938034    3.360246
     70          7           0        3.164823    0.633849    2.690645
 ---------------------------------------------------------------------

 SCF Done:  E(RwB97XD) =  -2048.74982241     A.U. after   15 cycles

 The electronic state is 1-A.
 Alpha  occ. eigenvalues --  -19.26103 -19.22302 -19.20808 -14.52586 -14.50947
 Alpha  occ. eigenvalues --  -14.49503 -14.48716 -14.47956 -14.47066 -14.47012
 Alpha  occ. eigenvalues --  -14.45494 -14.43952 -14.42484 -14.42361 -14.42197
 Alpha  occ. eigenvalues --  -14.42185 -14.42176 -14.41579 -14.40857 -14.40749
 Alpha  occ. eigenvalues --  -10.45664 -10.41406 -10.40347 -10.38430 -10.37768
 Alpha  occ. eigenvalues --  -10.37761 -10.36544 -10.35968 -10.35744 -10.35436
 Alpha  occ. eigenvalues --  -10.34820 -10.34440 -10.34108 -10.33949 -10.33714
 Alpha  occ. eigenvalues --  -10.33270 -10.32933 -10.31564 -10.31071 -10.30814
 Alpha  occ. eigenvalues --  -10.30642 -10.29276 -10.28229  -1.19626  -1.13616
 Alpha  occ. eigenvalues --   -1.13368  -1.13297  -1.12100  -1.10650  -1.09487
 Alpha  occ. eigenvalues --   -1.08775  -1.07110  -1.05601  -1.02692  -1.02601
 Alpha  occ. eigenvalues --   -1.00977  -1.00005  -0.99323  -0.98657  -0.97621
 Alpha  occ. eigenvalues --   -0.96574  -0.94755  -0.93204  -0.91080  -0.86021
 Alpha  occ. eigenvalues --   -0.84639  -0.84490  -0.84148  -0.83953  -0.82969
 Alpha  occ. eigenvalues --   -0.82426  -0.78970  -0.75211  -0.74687  -0.73838
 Alpha  occ. eigenvalues --   -0.73513  -0.73488  -0.72928  -0.71700  -0.68553
 Alpha  occ. eigenvalues --   -0.67543  -0.66893  -0.66674  -0.64869  -0.64567
 Alpha  occ. eigenvalues --   -0.63847  -0.63301  -0.62795  -0.62358  -0.61901
 Alpha  occ. eigenvalues --   -0.60702  -0.59949  -0.59621  -0.58767  -0.58639
 Alpha  occ. eigenvalues --   -0.58387  -0.57863  -0.57084  -0.56953  -0.56554
 Alpha  occ. eigenvalues --   -0.56164  -0.55814  -0.54536  -0.54382  -0.53856
 Alpha  occ. eigenvalues --   -0.53740  -0.53575  -0.53005  -0.52758  -0.52493
 Alpha  occ. eigenvalues --   -0.52208  -0.51961  -0.51452  -0.51185  -0.50763
 Alpha  occ. eigenvalues --   -0.50281  -0.49630  -0.49614  -0.48998  -0.48658
 Alpha  occ. eigenvalues --   -0.48396  -0.48283  -0.47837  -0.47688  -0.47561
 Alpha  occ. eigenvalues --   -0.47412  -0.45693  -0.44985  -0.44112  -0.42949
 Alpha  occ. eigenvalues --   -0.41836  -0.39663  -0.39080  -0.37829  -0.37407
 Alpha  occ. eigenvalues --   -0.37327  -0.36666  -0.35820  -0.35302  -0.34639
 Alpha  occ. eigenvalues --   -0.34237  -0.34141  -0.33462  -0.32942  -0.32782
 Alpha  occ. eigenvalues --   -0.32507  -0.32208  -0.32018  -0.31966  -0.31635
 Alpha  occ. eigenvalues --   -0.30918  -0.27920  -0.26342  -0.25581
 Alpha virt. eigenvalues --    0.03060   0.05588   0.07305   0.08259   0.08810
 Alpha virt. eigenvalues --    0.09199   0.09654   0.10303   0.10862   0.12329
 Alpha virt. eigenvalues --    0.12783   0.13429   0.14485   0.14653   0.16052

 Mulliken charges:
               1
     1  N   -0.310205
     2  C    0.180689
     3  C    0.030143
     4  N   -0.256025
     5  C    0.131221
     6  H    0.028475
     7  N   -0.283462
     8  C    0.128544
     9  H    0.016171
    10  N   -0.289530
    11  C    0.233371
    12  C    0.101557
    13  N   -0.037618
    14  H    0.107751
    15  H    0.089888
    16  H    0.027573
    17  H    0.035818
    18  H    0.025295
    19  N   -0.305900
    20  C    0.246328
    21  C    0.180073
    22  N   -0.123057
    23  H    0.111873
    24  H    0.118290
    25  N   -0.305106
    26  C    0.245074
    27  N   -0.130067
    28  H    0.118386
    29  C    0.161698
    30  O   -0.324517
    31  C   -0.004943
    32  N   -0.225943
    33  C    0.128605
    34  H    0.030427
    35  H    0.033456
    36  H    0.027561
    37  H    0.023074
    38  H    0.054592
    39  H    0.063063
    40  H    0.072852
    41  H    0.030250
    42  C   -0.093234
    43  O   -0.282453
    44  C    0.179255
    45  H    0.136001
    46  N   -0.129139
    47  O   -0.353316
    48  C    0.356696
    49  H    0.046831
    50  C    0.173777
    51  C    0.039710
    52  N   -0.292688
    53  H    0.030816
    54  H    0.039942
    55  H    0.018177
    56  H    0.117507
    57  H    0.118574
    58  N   -0.036108
    59  C    0.113432
    60  C    0.240406
    61  N   -0.269246
    62  H    0.039000
    63  C    0.153182
    64  N   -0.302407
    65  H    0.024156
    66  C    0.121754
    67  N   -0.257419
    68  C    0.009506
    69  C    0.179754
    70  N   -0.308189
 Sum of Mulliken charges =  -0.00000

 Dipole moment (field-independent basis, Debye):
    X=              6.2766    Y=              6.0363    Z=              2.9143  Tot=              9.1829
 Quadrupole moment (field-independent basis, Debye-Ang):
   XX=           -138.3219   YY=           -226.2750   ZZ=           -252.0567
   XY=             11.5212   XZ=             20.4291   YZ=             -1.8126

 Normal termination of Gaussian 16 at Sat Jan 20 17:54:08 2018.
