 Gaussian 16, Revision A.03,
 Gaussian 16:  EM64L-G16RevA.03 25-Dec-2016

 ---------------------------------------
 #p wb97xd/cc-pvdz sp scf=(maxcycles=20)
 ---------------------------------------

 ------------------
 Base pair stacking
 ------------------
 Symbolic Z-matrix:
 Charge =  0 Multiplicity = 1

                         Standard orientation:
 ---------------------------------------------------------------------
 Center     Atomic      Atomic             Coordinates (Angstroms)
 Number     Number       Type             X           Y           Z
 ---------------------------------------------------------------------
      1          7           0       -6.369516   -1.295938    0.559922
      2          6           0       -7.702228   -0.703246    0.784884
      3          6           0       -4.200772   -1.661707    0.551902
      4          7           0       -4.775387   -2.720068   -0.136870
      5          6           0       -6.058980   -2.457352   -0.104473
      6          1           0       -6.831315   -3.082560   -0.553414
      7          7           0       -2.634755   -0.219233    1.566705
      8          6           0       -3.677171    0.540035    1.919499
      9          1           0       -3.428429    1.439265    2.481435
     10          7           0       -4.974618    0.356153    1.683466
     11          6           0       -5.170863   -0.775846    0.987415
     12          6           0       -2.865304   -1.351684    0.867068
     13          7           0       -1.826040   -2.110920    0.513994
     14          1           0       -1.949871   -2.957734   -0.004462
     15          1           0       -0.888756   -1.859306    0.755538
     16          1           0       -8.270979   -1.344382    1.300279
     17          1           0       -7.606852    0.146590    1.302376
     18          1           0       -8.135708   -0.508833   -0.095052
     19          7           0       -3.586705    2.072406   -1.311957
     20          6           0       -2.222654    2.074252   -1.146372
     21          6           0       -4.495290    3.169801   -0.923488
     22          7           0        0.675133    3.661251   -0.075872
     23          1           0        1.655070    3.466082   -0.046114
     24          1           0        0.376993    4.543779    0.288789
     25          7           0       -1.489104    3.070848   -0.605312
     26          6           0       -0.200567    2.779745   -0.581844
     27          7           0        0.330967    1.603248   -1.051769
     28          1           0        1.328380    1.466412   -0.993427
     29          6           0       -0.404865    0.564001   -1.612469
     30          8           0        0.172617   -0.456889   -2.006205
     31          6           0       -1.790858    0.862138   -1.644520
     32          7           0       -2.862267    0.114389   -2.113405
     33          6           0       -3.904083    0.870407   -1.896008
     34          1           0       -4.930889    0.598801   -2.143332
     35          1           0       -5.157390    2.835293   -0.253761
     36          1           0       -3.963145    3.913749   -0.521452
     37          1           0       -4.978985    3.505899   -1.730876
     38          1           0        6.267130    1.133739    0.168789
     39          1           0        6.482057    1.592104   -1.518923
     40          1           0        5.085030    2.180762   -0.617174
     41          1           0        5.396664   -3.069839   -2.003486
     42          6           0        4.894796   -2.121742   -1.809904
     43          8           0        2.730790   -2.953967   -2.311508
     44          6           0        3.475050   -2.036092   -1.967436
     45          1           0        1.940566   -0.692597   -1.797979
     46          7           0        2.940930   -0.792238   -1.697643
     47          8           0        3.059305    1.392487   -1.089224
     48          6           0        3.621366    0.333217   -1.305334
     49          1           0        6.666682   -1.053890   -1.294242
     50          6           0        5.585864   -1.041217   -1.428442
     51          6           0        5.755966    1.346469   -0.758311
     52          7           0        4.986663    0.170948   -1.175542
     53          1           0        4.524239    2.203932    3.924540
     54          1           0        3.319854    2.718707    2.951632
     55          1           0        4.863265    2.740747    2.421103
     56          1           0        1.549079   -3.553550    0.309926
     57          1           0        3.204872   -3.471396    0.712067
     58          7           0        2.312896   -3.019655    0.672810
     59          6           0        2.150315   -1.761169    1.086261
     60          6           0        2.867471    0.319142    1.991664
     61          7           0        1.658083    0.900222    1.927200
     62          1           0       -0.251500    0.448311    1.335693
     63          6           0        0.760631    0.055601    1.423113
     64          7           0        0.921504   -1.205242    1.008435
     65          1           0        6.030081    0.070328    2.614663
     66          6           0        4.994370   -0.101366    2.320098
     67          7           0        4.538843   -1.222395    1.816653
     68          6           0        3.191478   -0.969325    1.603826
     69          6           0        4.199002    2.243911    2.979754
     70          7           0        4.037103    0.874610    2.453623
 ---------------------------------------------------------------------

 SCF Done:  E(RwB97XD) =  -2048.75352080     A.U. after   15 cycles

 The electronic state is 1-A.
 Alpha  occ. eigenvalues --  -19.25901 -19.21981 -19.20618 -14.52439 -14.51834
 Alpha  occ. eigenvalues --  -14.49247 -14.48590 -14.47841 -14.46852 -14.46842
 Alpha  occ. eigenvalues --  -14.46541 -14.44822 -14.43395 -14.43278 -14.42517
 Alpha  occ. eigenvalues --  -14.41932 -14.41797 -14.41456 -14.40720 -14.40605
 Alpha  occ. eigenvalues --  -10.45513 -10.41114 -10.40122 -10.38937 -10.38169
 Alpha  occ. eigenvalues --  -10.37678 -10.37354 -10.36419 -10.35799 -10.35569
 Alpha  occ. eigenvalues --  -10.35004 -10.34471 -10.34202 -10.33786 -10.33637
 Alpha  occ. eigenvalues --  -10.33522 -10.33210 -10.31783 -10.31497 -10.30896
 Alpha  occ. eigenvalues --  -10.30434 -10.28915 -10.27974  -1.19476  -1.14501
 Alpha  occ. eigenvalues --   -1.13146  -1.13051  -1.11796  -1.10462  -1.09308
 Alpha  occ. eigenvalues --   -1.08485  -1.08266  -1.05414  -1.03797  -1.02520
 Alpha  occ. eigenvalues --   -1.00824  -1.00264  -0.99636  -0.98452  -0.97376
 Alpha  occ. eigenvalues --   -0.96398  -0.95856  -0.93064  -0.90946  -0.86934
 Alpha  occ. eigenvalues --   -0.85362  -0.84390  -0.83937  -0.83802  -0.82758
 Alpha  occ. eigenvalues --   -0.82223  -0.78818  -0.76214  -0.74499  -0.73982
 Alpha  occ. eigenvalues --   -0.73563  -0.73348  -0.73295  -0.71471  -0.69576
 Alpha  occ. eigenvalues --   -0.67276  -0.66697  -0.66526  -0.65908  -0.64422
 Alpha  occ. eigenvalues --   -0.63656  -0.63445  -0.63058  -0.62592  -0.61634
 Alpha  occ. eigenvalues --   -0.60604  -0.60583  -0.59728  -0.59440  -0.58792
 Alpha  occ. eigenvalues --   -0.58536  -0.58253  -0.57020  -0.56926  -0.56324
 Alpha  occ. eigenvalues --   -0.55957  -0.55757  -0.54721  -0.54657  -0.54346
 Alpha  occ. eigenvalues --   -0.53614  -0.53525  -0.52834  -0.52805  -0.52729
 Alpha  occ. eigenvalues --   -0.52552  -0.52194  -0.52066  -0.51232  -0.50623
 Alpha  occ. eigenvalues --   -0.50045  -0.49583  -0.49451  -0.49109  -0.48911
 Alpha  occ. eigenvalues --   -0.48725  -0.48262  -0.47893  -0.47478  -0.47362
 Alpha  occ. eigenvalues --   -0.47355  -0.45456  -0.45329  -0.43923  -0.43744
 Alpha  occ. eigenvalues --   -0.41617  -0.39992  -0.39459  -0.37600  -0.37196
 Alpha  occ. eigenvalues --   -0.37171  -0.37031  -0.36760  -0.35830  -0.34197
 Alpha  occ. eigenvalues --   -0.34073  -0.33793  -0.33753  -0.33408  -0.33217
 Alpha  occ. eigenvalues --   -0.32625  -0.32193  -0.31892  -0.31805  -0.31381
 Alpha  occ. eigenvalues --   -0.30821  -0.28945  -0.26181  -0.25257
 Alpha virt. eigenvalues --    0.03073   0.04823   0.07556   0.07968   0.08352
 Alpha virt. eigenvalues --    0.09021   0.09836   0.10614   0.10796   0.11621
 Alpha virt. eigenvalues --    0.13172   0.13745   0.14520   0.14630   0.15215

 Mulliken charges:
               1
     1  N   -0.310624
     2  C    0.179932
     3  C    0.056557
     4  N   -0.253534
     5  C    0.129290
     6  H    0.027303
     7  N   -0.285375
     8  C    0.133722
     9  H    0.014586
    10  N   -0.291150
    11  C    0.228079
    12  C    0.101248
    13  N   -0.043726
    14  H    0.110632
    15  H    0.090848
    16  H    0.027644
    17  H    0.033809
    18  H    0.023667
    19  N   -0.302658
    20  C    0.254957
    21  C    0.181024
    22  N   -0.114262
    23  H    0.112886
    24  H    0.116325
    25  N   -0.306617
    26  C    0.235192
    27  N   -0.141684
    28  H    0.121318
    29  C    0.168458
    30  O   -0.324290
    31  C   -0.004976
    32  N   -0.223445
    33  C    0.127026
    34  H    0.022616
    35  H    0.026599
    36  H    0.027226
    37  H    0.021267
    38  H    0.046640
    39  H    0.062849
    40  H    0.074201
    41  H    0.026972
    42  C   -0.105136
    43  O   -0.275469
    44  C    0.164827
    45  H    0.135387
    46  N   -0.125151
    47  O   -0.344343
    48  C    0.345673
    49  H    0.045303
    50  C    0.185106
    51  C    0.040338
    52  N   -0.280790
    53  H    0.033491
    54  H    0.039248
    55  H    0.019633
    56  H    0.124999
    57  H    0.117644
    58  N   -0.046612
    59  C    0.106958
    60  C    0.243482
    61  N   -0.275439
    62  H    0.035966
    63  C    0.160735
    64  N   -0.303280
    65  H    0.034029
    66  C    0.113461
    67  N   -0.249396
    68  C    0.002318
    69  C    0.181361
    70  N   -0.304876
 Sum of Mulliken charges =  -0.00000

 Dipole moment (field-independent basis, Debye):
    X=              6.1910    Y=              6.0802    Z=              3.5507  Tot=              9.3758
 Quadrupole moment (field-independent basis, Debye-Ang):
   XX=           -144.0115   YY=           -224.7805   ZZ=           -257.1598
   XY=             10.1631   XZ=             11.0549   YZ=             -3.5309

 Normal termination of Gaussian 16 at Sun Jan 21 00:18:41 2018.
