 Gaussian 16, Revision A.03,
 Gaussian 16:  EM64L-G16RevA.03 25-Dec-2016

 ---------------------------------------
 #p wb97xd/cc-pvdz sp scf=(maxcycles=20)
 ---------------------------------------

 ------------------
 Base pair stacking
 ------------------
 Symbolic Z-matrix:
 Charge =  0 Multiplicity = 1

                         Standard orientation:
 ---------------------------------------------------------------------
 Center     Atomic      Atomic             Coordinates (Angstroms)
 Number     Number       Type             X           Y           Z
 ---------------------------------------------------------------------
      1          7           0        5.770382   -1.286908   -1.028531
      2          6           0        7.105887   -0.666339   -1.125093
      3          6           0        3.596705   -1.621701   -1.047339
      4          7           0        4.173362   -2.835588   -0.702863
      5          6           0        5.459848   -2.585297   -0.705321
      6          1           0        6.234419   -3.317885   -0.476626
      7          7           0        2.026051    0.060766   -1.562415
      8          6           0        3.070458    0.879547   -1.724829
      9          1           0        2.820550    1.902349   -2.003563
     10          7           0        4.371118    0.625778   -1.595244
     11          6           0        4.568553   -0.657598   -1.251162
     12          6           0        2.257857   -1.224341   -1.216216
     13          7           0        1.216604   -2.043193   -1.053624
     14          1           0        1.341268   -3.002424   -0.797571
     15          1           0        0.276939   -1.725946   -1.182143
     16          1           0        7.646648   -1.142123   -1.818913
     17          1           0        7.009748    0.295275   -1.380372
     18          1           0        7.570031   -0.730116   -0.241628
     19          7           0        4.255222    1.654323    1.254023
     20          6           0        2.886697    1.713357    1.145844
     21          6           0        5.189811    2.727602    0.859943
     22          7           0        0.012568    3.442060    0.244318
     23          1           0       -0.974697    3.285482    0.249970
     24          1           0        0.330190    4.323334   -0.106663
     25          7           0        2.171599    2.753406    0.665226
     26          6           0        0.872700    2.512607    0.687283
     27          7           0        0.314750    1.343406    1.144618
     28          1           0       -0.688832    1.246633    1.124142
     29          6           0        1.031239    0.260064    1.643503
     30          8           0        0.430451   -0.749632    2.031196
     31          6           0        2.428066    0.503901    1.626134
     32          7           0        3.487353   -0.298288    2.027754
     33          6           0        4.548461    0.423695    1.789016
     34          1           0        5.572970    0.105584    1.985099
     35          1           0        5.810380    2.388778    0.153625
     36          1           0        4.671498    3.503346    0.502387
     37          1           0        5.718866    3.020024    1.655811
     38          1           0       -5.680093    1.138763    0.160628
     39          1           0       -5.807857    1.552934    1.868483
     40          1           0       -4.426582    2.115217    0.926535
     41          1           0       -4.888371   -3.159753    2.171216
     42          6           0       -4.357796   -2.226025    1.984472
     43          8           0       -2.209670   -3.155334    2.370543
     44          6           0       -2.930538   -2.199567    2.084828
     45          1           0       -1.352427   -0.911114    1.890426
     46          7           0       -2.359203   -0.969317    1.829220
     47          8           0       -2.415987    1.235983    1.290173
     48          6           0       -3.010132    0.192829    1.498697
     49          1           0       -6.105717   -1.075918    1.574793
     50          6           0       -5.020666   -1.108682    1.663911
     51          6           0       -5.123600    1.303227    1.071305
     52          7           0       -4.384910    0.086912    1.421535
     53          1           0       -5.158187    3.108894   -2.895831
     54          1           0       -3.914963    3.319964   -1.860481
     55          1           0       -5.440442    3.205586   -1.291335
     56          1           0       -2.175946   -3.456264   -1.143554
     57          1           0       -3.841719   -3.250502   -1.448441
     58          7           0       -2.940968   -2.835528   -1.315546
     59          6           0       -2.768712   -1.513042   -1.365658
     60          6           0       -3.476169    0.743723   -1.626942
     61          7           0       -2.255085    1.273069   -1.444766
     62          1           0       -0.336441    0.657143   -1.070570
     63          6           0       -1.357708    0.313359   -1.228945
     64          7           0       -1.528259   -1.011755   -1.178379
     65          1           0       -6.660634    0.706596   -2.183650
     66          6           0       -5.619505    0.450366   -1.985332
     67          7           0       -5.168769   -0.770707   -1.832036
     68          6           0       -3.811079   -0.598972   -1.604151
     69          6           0       -4.802974    2.879636   -1.989596
     70          7           0       -4.649442    1.416410   -1.873746
 ---------------------------------------------------------------------

 SCF Done:  E(RwB97XD) =  -2048.74523310     A.U. after   15 cycles

 The electronic state is 1-A.
 Alpha  occ. eigenvalues --  -19.25410 -19.21610 -19.20501 -14.52506 -14.52036
 Alpha  occ. eigenvalues --  -14.49196 -14.48353 -14.47948 -14.47428 -14.46716
 Alpha  occ. eigenvalues --  -14.46381 -14.45685 -14.44252 -14.44249 -14.42787
 Alpha  occ. eigenvalues --  -14.41818 -14.41695 -14.41409 -14.40678 -14.40592
 Alpha  occ. eigenvalues --  -10.44990 -10.41045 -10.39856 -10.39734 -10.38126
 Alpha  occ. eigenvalues --  -10.38083 -10.37337 -10.37236 -10.35863 -10.35657
 Alpha  occ. eigenvalues --  -10.34889 -10.34396 -10.34274 -10.34028 -10.33749
 Alpha  occ. eigenvalues --  -10.33397 -10.33118 -10.32720 -10.31644 -10.30643
 Alpha  occ. eigenvalues --  -10.30277 -10.28854 -10.27860  -1.19118  -1.15396
 Alpha  occ. eigenvalues --   -1.13029  -1.12642  -1.11724  -1.10318  -1.09241
 Alpha  occ. eigenvalues --   -1.08923  -1.08367  -1.05464  -1.04712  -1.02114
 Alpha  occ. eigenvalues --   -1.01127  -1.00923  -0.99492  -0.98359  -0.97390
 Alpha  occ. eigenvalues --   -0.96760  -0.96275  -0.93141  -0.90637  -0.87780
 Alpha  occ. eigenvalues --   -0.86143  -0.84388  -0.83811  -0.83442  -0.82801
 Alpha  occ. eigenvalues --   -0.82078  -0.78461  -0.77113  -0.74923  -0.74363
 Alpha  occ. eigenvalues --   -0.73446  -0.73299  -0.73000  -0.71462  -0.70463
 Alpha  occ. eigenvalues --   -0.67151  -0.66799  -0.66760  -0.66176  -0.64308
 Alpha  occ. eigenvalues --   -0.64187  -0.63522  -0.63174  -0.62492  -0.61649
 Alpha  occ. eigenvalues --   -0.61528  -0.60806  -0.60539  -0.59578  -0.59149
 Alpha  occ. eigenvalues --   -0.58311  -0.58113  -0.57354  -0.57022  -0.56203
 Alpha  occ. eigenvalues --   -0.55918  -0.55695  -0.55420  -0.54271  -0.54027
 Alpha  occ. eigenvalues --   -0.53915  -0.53547  -0.53308  -0.53292  -0.52811
 Alpha  occ. eigenvalues --   -0.52652  -0.52298  -0.52247  -0.51165  -0.50628
 Alpha  occ. eigenvalues --   -0.49977  -0.49838  -0.49271  -0.49139  -0.48693
 Alpha  occ. eigenvalues --   -0.48492  -0.48297  -0.48103  -0.47404  -0.47141
 Alpha  occ. eigenvalues --   -0.47051  -0.45791  -0.45223  -0.44739  -0.43170
 Alpha  occ. eigenvalues --   -0.41401  -0.40820  -0.39165  -0.37828  -0.37668
 Alpha  occ. eigenvalues --   -0.37599  -0.37144  -0.37009  -0.36062  -0.34693
 Alpha  occ. eigenvalues --   -0.34336  -0.34042  -0.33814  -0.33522  -0.32875
 Alpha  occ. eigenvalues --   -0.32456  -0.32211  -0.31754  -0.31674  -0.31124
 Alpha  occ. eigenvalues --   -0.30903  -0.29448  -0.26021  -0.25244
 Alpha virt. eigenvalues --    0.03532   0.03798   0.07043   0.07300   0.08508
 Alpha virt. eigenvalues --    0.08965   0.09961   0.10419   0.10910   0.12237
 Alpha virt. eigenvalues --    0.13172   0.13893   0.13949   0.14241   0.14712

 Mulliken charges:
               1
     1  N   -0.308427
     2  C    0.174696
     3  C    0.076416
     4  N   -0.255240
     5  C    0.133626
     6  H    0.027207
     7  N   -0.286290
     8  C    0.138070
     9  H    0.013167
    10  N   -0.284615
    11  C    0.223271
    12  C    0.090864
    13  N   -0.049256
    14  H    0.110081
    15  H    0.085425
    16  H    0.028678
    17  H    0.036085
    18  H    0.023297
    19  N   -0.282278
    20  C    0.226142
    21  C    0.184698
    22  N   -0.109399
    23  H    0.114726
    24  H    0.115597
    25  N   -0.297410
    26  C    0.222919
    27  N   -0.140663
    28  H    0.121455
    29  C    0.177339
    30  O   -0.323162
    31  C   -0.006074
    32  N   -0.217997
    33  C    0.118838
    34  H    0.015219
    35  H    0.018618
    36  H    0.027583
    37  H    0.019993
    38  H    0.042862
    39  H    0.059551
    40  H    0.072013
    41  H    0.025200
    42  C   -0.109993
    43  O   -0.268542
    44  C    0.168748
    45  H    0.131331
    46  N   -0.116899
    47  O   -0.334124
    48  C    0.331088
    49  H    0.044656
    50  C    0.173479
    51  C    0.049008
    52  N   -0.276446
    53  H    0.037066
    54  H    0.039313
    55  H    0.021081
    56  H    0.124825
    57  H    0.118705
    58  N   -0.058858
    59  C    0.099603
    60  C    0.203840
    61  N   -0.255413
    62  H    0.040300
    63  C    0.143367
    64  N   -0.297529
    65  H    0.038118
    66  C    0.105253
    67  N   -0.247164
    68  C    0.046095
    69  C    0.181159
    70  N   -0.294889
 Sum of Mulliken charges =  -0.00000

 Dipole moment (field-independent basis, Debye):
    X=             -6.0995    Y=              6.4828    Z=             -3.8690  Tot=              9.7057
 Quadrupole moment (field-independent basis, Debye-Ang):
   XX=           -147.3455   YY=           -226.2663   ZZ=           -259.6303
   XY=             -9.5418   XZ=              2.1716   YZ=             10.1422

 Normal termination of Gaussian 16 at Sat Jan 20 09:30:09 2018.
