 Gaussian 16, Revision A.03,
 Gaussian 16:  EM64L-G16RevA.03 25-Dec-2016

 ---------------------------------------
 #p wb97xd/cc-pvdz sp scf=(maxcycles=20)
 ---------------------------------------

 ------------------
 Base pair stacking
 ------------------
 Symbolic Z-matrix:
 Charge =  0 Multiplicity = 1

                         Standard orientation:
 ---------------------------------------------------------------------
 Center     Atomic      Atomic             Coordinates (Angstroms)
 Number     Number       Type             X           Y           Z
 ---------------------------------------------------------------------
      1          7           0       -6.643329   -1.183450    0.411086
      2          6           0       -7.971379   -0.565141    0.589939
      3          6           0       -4.480878   -1.581585    0.462032
      4          7           0       -5.056319   -2.649354   -0.211358
      5          6           0       -6.336095   -2.366757   -0.215100
      6          1           0       -7.107820   -2.992199   -0.664764
      7          7           0       -2.915730   -0.135912    1.473620
      8          6           0       -3.953861    0.647998    1.782403
      9          1           0       -3.703802    1.558159    2.325851
     10          7           0       -5.248413    0.477211    1.521902
     11          6           0       -5.446603   -0.670000    0.851795
     12          6           0       -3.148123   -1.283152    0.799144
     13          7           0       -2.113141   -2.066996    0.489996
     14          1           0       -2.238486   -2.925469   -0.008539
     15          1           0       -1.177701   -1.822986    0.746029
     16          1           0       -8.561363   -1.183680    1.109081
     17          1           0       -7.874420    0.296755    1.086794
     18          1           0       -8.382057   -0.387951   -0.304457
     19          7           0       -3.273987    2.087724   -1.408437
     20          6           0       -1.914105    2.073666   -1.212011
     21          6           0       -4.173891    3.208561   -1.069902
     22          7           0        0.983335    3.645444   -0.118335
     23          1           0        1.959212    3.436567   -0.061162
     24          1           0        0.690850    4.541779    0.215965
     25          7           0       -1.177441    3.073377   -0.680996
     26          6           0        0.105583    2.763836   -0.620558
     27          7           0        0.629167    1.567371   -1.046982
     28          1           0        1.622787    1.417297   -0.962381
     29          6           0       -0.110002    0.524547   -1.596536
     30          8           0        0.460233   -0.515034   -1.949884
     31          6           0       -1.490146    0.842341   -1.667952
     32          7           0       -2.562281    0.098332   -2.141100
     33          6           0       -3.596843    0.875352   -1.967522
     34          1           0       -4.621960    0.612545   -2.230834
     35          1           0       -4.855879    2.902039   -0.406770
     36          1           0       -3.639372    3.955004   -0.675716
     37          1           0       -4.634179    3.530058   -1.896687
     38          1           0        6.528620    1.042341    0.320150
     39          1           0        6.788237    1.452026   -1.373786
     40          1           0        5.380721    2.085417   -0.519913
     41          1           0        5.641778   -3.204540   -1.759293
     42          6           0        5.150475   -2.244218   -1.602333
     43          8           0        2.985559   -3.057250   -2.130767
     44          6           0        3.736098   -2.141671   -1.794304
     45          1           0        2.219228   -0.771396   -1.695375
     46          7           0        3.215439   -0.883209   -1.569732
     47          8           0        3.354065    1.315039   -1.016834
     48          6           0        3.904317    0.242095   -1.191997
     49          1           0        6.926755   -1.189448   -1.074996
     50          6           0        5.849522   -1.164280   -1.234009
     51          6           0        6.041633    1.237729   -0.623642
     52          7           0        5.263690    0.063041   -1.026967
     53          1           0        4.225582    2.242641    3.928518
     54          1           0        3.051326    2.749039    2.915209
     55          1           0        4.606355    2.733831    2.419496
     56          1           0        1.242919   -3.564722    0.400932
     57          1           0        2.890392   -3.496495    0.838276
     58          7           0        2.006633   -3.032730    0.766816
     59          6           0        1.854389   -1.761321    1.143003
     60          6           0        2.583337    0.331597    2.009074
     61          7           0        1.384843    0.928698    1.901796
     62          1           0       -0.517841    0.489597    1.279225
     63          6           0        0.485869    0.084339    1.399976
     64          7           0        0.636388   -1.189428    1.022587
     65          1           0        5.727019    0.052471    2.710139
     66          6           0        4.695601   -0.111607    2.396776
     67          7           0        4.234097   -1.238818    1.912957
     68          6           0        2.895900   -0.971482    1.662958
     69          6           0        3.922161    2.262119    2.975859
     70          7           0        3.750833    0.881766    2.482622
 ---------------------------------------------------------------------

 SCF Done:  E(RwB97XD) =  -2048.75205046     A.U. after   15 cycles

 The electronic state is 1-A.
 Alpha  occ. eigenvalues --  -19.25998 -19.22065 -19.20634 -14.52483 -14.51567
 Alpha  occ. eigenvalues --  -14.49400 -14.48577 -14.47919 -14.46834 -14.46607
 Alpha  occ. eigenvalues --  -14.46553 -14.44554 -14.43059 -14.42996 -14.42568
 Alpha  occ. eigenvalues --  -14.41996 -14.41980 -14.41602 -14.40721 -14.40700
 Alpha  occ. eigenvalues --  -10.45578 -10.41136 -10.40157 -10.38611 -10.38190
 Alpha  occ. eigenvalues --  -10.37678 -10.37123 -10.36115 -10.35925 -10.35689
 Alpha  occ. eigenvalues --  -10.34730 -10.34652 -10.34252 -10.33970 -10.33667
 Alpha  occ. eigenvalues --  -10.33482 -10.33188 -10.31562 -10.31484 -10.30950
 Alpha  occ. eigenvalues --  -10.30397 -10.29109 -10.28023  -1.19548  -1.14227
 Alpha  occ. eigenvalues --   -1.13178  -1.13105  -1.11969  -1.10473  -1.09362
 Alpha  occ. eigenvalues --   -1.08513  -1.07958  -1.05539  -1.03495  -1.02575
 Alpha  occ. eigenvalues --   -1.00947  -1.00004  -0.99682  -0.98474  -0.97523
 Alpha  occ. eigenvalues --   -0.96398  -0.95563  -0.93177  -0.90984  -0.86675
 Alpha  occ. eigenvalues --   -0.85137  -0.84534  -0.83971  -0.83865  -0.82887
 Alpha  occ. eigenvalues --   -0.82216  -0.78867  -0.75944  -0.74510  -0.73700
 Alpha  occ. eigenvalues --   -0.73605  -0.73430  -0.73399  -0.71620  -0.69308
 Alpha  occ. eigenvalues --   -0.67308  -0.66831  -0.66576  -0.65644  -0.64464
 Alpha  occ. eigenvalues --   -0.63675  -0.63335  -0.63043  -0.62621  -0.61656
 Alpha  occ. eigenvalues --   -0.60694  -0.60381  -0.59507  -0.59481  -0.58584
 Alpha  occ. eigenvalues --   -0.58517  -0.58294  -0.57084  -0.57021  -0.56380
 Alpha  occ. eigenvalues --   -0.56025  -0.55838  -0.54608  -0.54498  -0.54394
 Alpha  occ. eigenvalues --   -0.53586  -0.53551  -0.52833  -0.52734  -0.52693
 Alpha  occ. eigenvalues --   -0.52441  -0.52270  -0.51826  -0.51354  -0.50732
 Alpha  occ. eigenvalues --   -0.50067  -0.49631  -0.49488  -0.49003  -0.48738
 Alpha  occ. eigenvalues --   -0.48729  -0.48237  -0.47854  -0.47553  -0.47498
 Alpha  occ. eigenvalues --   -0.47380  -0.45477  -0.45378  -0.43942  -0.43565
 Alpha  occ. eigenvalues --   -0.41765  -0.39771  -0.39534  -0.37758  -0.37221
 Alpha  occ. eigenvalues --   -0.37171  -0.36894  -0.36498  -0.35681  -0.34233
 Alpha  occ. eigenvalues --   -0.34093  -0.34020  -0.33547  -0.33274  -0.33100
 Alpha  occ. eigenvalues --   -0.32664  -0.32165  -0.31951  -0.31822  -0.31534
 Alpha  occ. eigenvalues --   -0.30928  -0.28578  -0.26372  -0.25306
 Alpha virt. eigenvalues --    0.03088   0.04966   0.07433   0.08205   0.08560
 Alpha virt. eigenvalues --    0.09080   0.09775   0.10380   0.10725   0.11607
 Alpha virt. eigenvalues --    0.13046   0.13592   0.14559   0.14676   0.15394

 Mulliken charges:
               1
     1  N   -0.310872
     2  C    0.180218
     3  C    0.049530
     4  N   -0.254497
     5  C    0.130228
     6  H    0.027984
     7  N   -0.282063
     8  C    0.132001
     9  H    0.015485
    10  N   -0.291821
    11  C    0.228531
    12  C    0.103406
    13  N   -0.043544
    14  H    0.109514
    15  H    0.089652
    16  H    0.027716
    17  H    0.034278
    18  H    0.024671
    19  N   -0.303236
    20  C    0.254845
    21  C    0.180640
    22  N   -0.113155
    23  H    0.111638
    24  H    0.116194
    25  N   -0.304558
    26  C    0.235501
    27  N   -0.133627
    28  H    0.117307
    29  C    0.158674
    30  O   -0.323095
    31  C    0.000550
    32  N   -0.224920
    33  C    0.123931
    34  H    0.025087
    35  H    0.027231
    36  H    0.026796
    37  H    0.021574
    38  H    0.047839
    39  H    0.063974
    40  H    0.074350
    41  H    0.028465
    42  C   -0.098994
    43  O   -0.275519
    44  C    0.168330
    45  H    0.136398
    46  N   -0.128248
    47  O   -0.346948
    48  C    0.347452
    49  H    0.045745
    50  C    0.181710
    51  C    0.038494
    52  N   -0.283382
    53  H    0.032981
    54  H    0.038399
    55  H    0.019127
    56  H    0.123012
    57  H    0.118401
    58  N   -0.046538
    59  C    0.109975
    60  C    0.239598
    61  N   -0.275588
    62  H    0.036545
    63  C    0.166019
    64  N   -0.302563
    65  H    0.031378
    66  C    0.116645
    67  N   -0.250028
    68  C    0.000871
    69  C    0.179983
    70  N   -0.305673
 Sum of Mulliken charges =  -0.00000

 Dipole moment (field-independent basis, Debye):
    X=              6.1046    Y=              6.0072    Z=              3.4270  Tot=              9.2248
 Quadrupole moment (field-independent basis, Debye-Ang):
   XX=           -142.2970   YY=           -225.2792   ZZ=           -256.1927
   XY=             11.2939   XZ=             14.0256   YZ=             -3.9807

 Normal termination of Gaussian 16 at Sun Jan 21 01:06:52 2018.
