 Gaussian 16, Revision A.03,
 Gaussian 16:  EM64L-G16RevA.03 25-Dec-2016

 ---------------------------------------
 #p wb97xd/cc-pvdz sp scf=(maxcycles=20)
 ---------------------------------------

 ------------------
 Base pair stacking
 ------------------
 Symbolic Z-matrix:
 Charge =  0 Multiplicity = 1

                         Standard orientation:
 ---------------------------------------------------------------------
 Center     Atomic      Atomic             Coordinates (Angstroms)
 Number     Number       Type             X           Y           Z
 ---------------------------------------------------------------------
      1          7           0        5.483294   -1.498778   -1.159023
      2          6           0        6.822043   -0.941173   -1.432564
      3          6           0        3.306329   -1.776386   -1.013919
      4          7           0        3.880026   -2.918075   -0.473413
      5          6           0        5.168613   -2.705136   -0.582469
      6          1           0        5.941849   -3.400960   -0.255554
      7          7           0        1.738959   -0.181661   -1.764358
      8          6           0        2.786889    0.565517   -2.126499
      9          1           0        2.539722    1.523715   -2.581504
     10          7           0        4.088179    0.307991   -2.011504
     11          6           0        4.282047   -0.892470   -1.440763
     12          6           0        1.967232   -1.384285   -1.192802
     13          7           0        0.922459   -2.131586   -0.830620
     14          1           0        1.044438   -3.028470   -0.404083
     15          1           0       -0.017265   -1.820600   -0.973220
     16          1           0        7.319718   -1.552248   -2.048266
     17          1           0        6.728639   -0.042510   -1.860123
     18          1           0        7.328769   -0.849525   -0.575335
     19          7           0        4.549927    1.755291    1.075709
     20          6           0        3.178968    1.828582    1.019515
     21          6           0        5.480398    2.809489    0.624475
     22          7           0        0.291402    3.573710    0.195975
     23          1           0       -0.696584    3.429087    0.243007
     24          1           0        0.604944    4.444151   -0.184464
     25          7           0        2.457360    2.867583    0.546450
     26          6           0        1.157688    2.642812    0.623614
     27          7           0        0.604952    1.489437    1.125349
     28          1           0       -0.399688    1.404291    1.145718
     29          6           0        1.328190    0.407490    1.617469
     30          8           0        0.731708   -0.587237    2.048123
     31          6           0        2.725911    0.634234    1.541125
     32          7           0        3.791007   -0.172621    1.917223
     33          6           0        4.850013    0.531855    1.623239
     34          1           0        5.877768    0.205382    1.785736
     35          1           0        6.069108    2.449634   -0.098514
     36          1           0        4.957234    3.584286    0.271966
     37          1           0        6.043318    3.110935    1.393278
     38          1           0       -5.425625    1.337443    0.378770
     39          1           0       -5.482044    1.786158    2.081744
     40          1           0       -4.132348    2.313513    1.075974
     41          1           0       -4.604246   -2.930434    2.442042
     42          6           0       -4.070941   -2.006914    2.216377
     43          8           0       -1.919939   -2.954179    2.537237
     44          6           0       -2.640651   -1.995570    2.260780
     45          1           0       -1.057007   -0.730094    1.979811
     46          7           0       -2.065988   -0.777436    1.958855
     47          8           0       -2.119056    1.417522    1.378756
     48          6           0       -2.716256    0.385781    1.630825
     49          1           0       -5.820526   -0.844144    1.852037
     50          6           0       -4.733265   -0.888151    1.899653
     51          6           0       -4.832232    1.512869    1.263743
     52          7           0       -4.094100    0.294828    1.609134
     53          1           0       -5.453362    2.741412   -3.316280
     54          1           0       -4.156645    3.111867   -2.397927
     55          1           0       -5.653338    3.144819   -1.747626
     56          1           0       -2.492507   -3.450641   -0.495411
     57          1           0       -4.167946   -3.263998   -0.756445
     58          7           0       -3.255148   -2.854225   -0.746019
     59          6           0       -3.064495   -1.569441   -1.052849
     60          6           0       -3.747956    0.615136   -1.702628
     61          7           0       -2.510983    1.138410   -1.680254
     62          1           0       -0.586093    0.555682   -1.285454
     63          6           0       -1.619381    0.214064   -1.328752
     64          7           0       -1.808356   -1.073256   -1.021057
     65          1           0       -6.956491    0.554187   -2.094709
     66          6           0       -5.910966    0.313668   -1.899855
     67          7           0       -5.472710   -0.867812   -1.539713
     68          6           0       -4.102745   -0.690530   -1.411280
     69          6           0       -5.056935    2.677590   -2.400441
     70          7           0       -4.921207    1.258775   -2.017600
 ---------------------------------------------------------------------

 SCF Done:  E(RwB97XD) =  -2048.75356154     A.U. after   15 cycles

 The electronic state is 1-A.
 Alpha  occ. eigenvalues --  -19.25484 -19.21794 -19.20576 -14.52501 -14.52034
 Alpha  occ. eigenvalues --  -14.48850 -14.48723 -14.47897 -14.47486 -14.46811
 Alpha  occ. eigenvalues --  -14.46582 -14.45551 -14.44278 -14.44250 -14.42488
 Alpha  occ. eigenvalues --  -14.41951 -14.41323 -14.41186 -14.40939 -14.40499
 Alpha  occ. eigenvalues --  -10.45065 -10.41179 -10.39882 -10.39823 -10.38201
 Alpha  occ. eigenvalues --  -10.38038 -10.37289 -10.37178 -10.35753 -10.35621
 Alpha  occ. eigenvalues --  -10.34923 -10.34317 -10.34069 -10.34066 -10.33470
 Alpha  occ. eigenvalues --  -10.33412 -10.33271 -10.32657 -10.31372 -10.30785
 Alpha  occ. eigenvalues --  -10.30744 -10.28594 -10.28093  -1.19106  -1.15292
 Alpha  occ. eigenvalues --   -1.13139  -1.12801  -1.11388  -1.10546  -1.09216
 Alpha  occ. eigenvalues --   -1.08964  -1.08498  -1.05234  -1.04691  -1.02178
 Alpha  occ. eigenvalues --   -1.01014  -1.00630  -0.99657  -0.98485  -0.97083
 Alpha  occ. eigenvalues --   -0.96734  -0.96545  -0.92913  -0.90671  -0.87659
 Alpha  occ. eigenvalues --   -0.85985  -0.84092  -0.84071  -0.83387  -0.82540
 Alpha  occ. eigenvalues --   -0.82411  -0.78491  -0.77014  -0.74816  -0.74576
 Alpha  occ. eigenvalues --   -0.73565  -0.73051  -0.73044  -0.71207  -0.70359
 Alpha  occ. eigenvalues --   -0.67330  -0.66733  -0.66472  -0.66202  -0.64286
 Alpha  occ. eigenvalues --   -0.64187  -0.63637  -0.62896  -0.62565  -0.61725
 Alpha  occ. eigenvalues --   -0.61216  -0.60595  -0.60407  -0.59477  -0.59130
 Alpha  occ. eigenvalues --   -0.58615  -0.58299  -0.57123  -0.56756  -0.56158
 Alpha  occ. eigenvalues --   -0.55745  -0.55684  -0.55294  -0.54177  -0.54013
 Alpha  occ. eigenvalues --   -0.53777  -0.53549  -0.53488  -0.53382  -0.52877
 Alpha  occ. eigenvalues --   -0.52807  -0.52208  -0.52014  -0.50889  -0.50438
 Alpha  occ. eigenvalues --   -0.50096  -0.49958  -0.49247  -0.49056  -0.48765
 Alpha  occ. eigenvalues --   -0.48717  -0.48322  -0.48299  -0.47491  -0.47245
 Alpha  occ. eigenvalues --   -0.47085  -0.45978  -0.44984  -0.44891  -0.43158
 Alpha  occ. eigenvalues --   -0.41183  -0.40727  -0.39139  -0.37861  -0.37549
 Alpha  occ. eigenvalues --   -0.37299  -0.37228  -0.37149  -0.36111  -0.34617
 Alpha  occ. eigenvalues --   -0.34312  -0.34077  -0.33616  -0.33420  -0.33036
 Alpha  occ. eigenvalues --   -0.32609  -0.32299  -0.31879  -0.31822  -0.31046
 Alpha  occ. eigenvalues --   -0.30650  -0.29486  -0.25938  -0.25379
 Alpha virt. eigenvalues --    0.03476   0.03910   0.07151   0.07697   0.08597
 Alpha virt. eigenvalues --    0.09176   0.09789   0.10417   0.10823   0.12312
 Alpha virt. eigenvalues --    0.13062   0.13645   0.14161   0.14475   0.14797

 Mulliken charges:
               1
     1  N   -0.306928
     2  C    0.176266
     3  C    0.070643
     4  N   -0.253192
     5  C    0.136129
     6  H    0.026097
     7  N   -0.291290
     8  C    0.134850
     9  H    0.011708
    10  N   -0.285786
    11  C    0.228349
    12  C    0.088927
    13  N   -0.047103
    14  H    0.112260
    15  H    0.084239
    16  H    0.027814
    17  H    0.034527
    18  H    0.019861
    19  N   -0.297864
    20  C    0.254251
    21  C    0.183987
    22  N   -0.120116
    23  H    0.118048
    24  H    0.117400
    25  N   -0.306696
    26  C    0.239890
    27  N   -0.140641
    28  H    0.116660
    29  C    0.184246
    30  O   -0.323160
    31  C   -0.017082
    32  N   -0.217478
    33  C    0.116299
    34  H    0.017749
    35  H    0.023529
    36  H    0.029877
    37  H    0.021974
    38  H    0.050597
    39  H    0.060588
    40  H    0.074408
    41  H    0.022185
    42  C   -0.103278
    43  O   -0.270827
    44  C    0.161987
    45  H    0.130219
    46  N   -0.110443
    47  O   -0.341654
    48  C    0.333642
    49  H    0.045457
    50  C    0.169290
    51  C    0.044887
    52  N   -0.277061
    53  H    0.035416
    54  H    0.040822
    55  H    0.022319
    56  H    0.126603
    57  H    0.117068
    58  N   -0.053697
    59  C    0.084741
    60  C    0.211793
    61  N   -0.261547
    62  H    0.029723
    63  C    0.159297
    64  N   -0.298572
    65  H    0.035621
    66  C    0.112687
    67  N   -0.251577
    68  C    0.047342
    69  C    0.182506
    70  N   -0.298792
 Sum of Mulliken charges =  -0.00000

 Dipole moment (field-independent basis, Debye):
    X=             -6.2366    Y=              6.6665    Z=             -3.3980  Tot=              9.7408
 Quadrupole moment (field-independent basis, Debye-Ang):
   XX=           -148.2760   YY=           -224.3801   ZZ=           -259.0779
   XY=             -7.8264   XZ=             -0.5112   YZ=              6.5240

 Normal termination of Gaussian 16 at Sat Jan 20 07:42:32 2018.
