 Gaussian 16, Revision A.03,
 Gaussian 16:  EM64L-G16RevA.03 25-Dec-2016

 ---------------------------------------
 #p wb97xd/cc-pvdz sp scf=(maxcycles=20)
 ---------------------------------------

 ------------------
 Base pair stacking
 ------------------
 Symbolic Z-matrix:
 Charge =  0 Multiplicity = 1

                         Standard orientation:
 ---------------------------------------------------------------------
 Center     Atomic      Atomic             Coordinates (Angstroms)
 Number     Number       Type             X           Y           Z
 ---------------------------------------------------------------------
      1          7           0        5.472830   -1.175814   -1.236409
      2          6           0        6.809838   -0.551060   -1.226946
      3          6           0        3.297732   -1.496282   -1.296176
      4          7           0        3.872784   -2.754754   -1.194699
      5          6           0        5.160181   -2.511313   -1.162747
      6          1           0        5.933968   -3.275660   -1.085459
      7          7           0        1.728983    0.256767   -1.465842
      8          6           0        2.775080    1.089264   -1.480368
      9          1           0        2.526621    2.146935   -1.556991
     10          7           0        4.075892    0.812708   -1.414759
     11          6           0        4.271452   -0.513089   -1.322976
     12          6           0        1.958932   -1.071216   -1.372656
     13          7           0        0.915996   -1.903831   -1.358003
     14          1           0        1.039254   -2.894499   -1.290267
     15          1           0       -0.023586   -1.565917   -1.414203
     16          1           0        7.341926   -0.887397   -2.004087
     17          1           0        6.715118    0.441762   -1.293776
     18          1           0        7.282255   -0.782637   -0.376548
     19          7           0        4.568061    1.431101    1.178927
     20          6           0        3.198306    1.506326    1.100381
     21          6           0        5.505688    2.503137    0.788690
     22          7           0        0.324773    3.283168    0.295770
     23          1           0       -0.663769    3.136524    0.318486
     24          1           0        0.644455    4.168570   -0.042734
     25          7           0        2.484563    2.563729    0.657066
     26          6           0        1.183904    2.335683    0.700822
     27          7           0        0.623111    1.162560    1.144437
     28          1           0       -0.381656    1.076426    1.142660
     29          6           0        1.338163    0.061477    1.605052
     30          8           0        0.734785   -0.950237    1.983369
     31          6           0        2.736840    0.291466    1.564025
     32          7           0        3.795581   -0.529922    1.926361
     33          6           0        4.859154    0.186264    1.681245
     34          1           0        5.884040   -0.146372    1.849232
     35          1           0        6.108058    2.173400    0.062582
     36          1           0        4.988398    3.291645    0.458650
     37          1           0        6.053991    2.772884    1.579533
     38          1           0       -5.392453    1.040028    0.280521
     39          1           0       -5.480847    1.418407    1.999149
     40          1           0       -4.113275    1.986921    1.041080
     41          1           0       -4.605252   -3.308807    2.181717
     42          6           0       -4.068760   -2.376683    2.004089
     43          8           0       -1.923131   -3.335854    2.325627
     44          6           0       -2.639545   -2.366855    2.075443
     45          1           0       -1.052209   -1.090556    1.876092
     46          7           0       -2.060591   -1.137226    1.834492
     47          8           0       -2.105067    1.079695    1.344115
     48          6           0       -2.705809    0.038342    1.542492
     49          1           0       -5.812434   -1.200313    1.655410
     50          6           0       -4.726197   -1.246006    1.721335
     51          6           0       -4.815726    1.179084    1.182807
     52          7           0       -4.082927   -0.051946    1.491533
     53          1           0       -5.455428    3.518137   -2.121553
     54          1           0       -4.201400    3.525843   -1.077787
     55          1           0       -5.721733    3.308594   -0.525119
     56          1           0       -2.482959   -3.266774   -1.680048
     57          1           0       -4.150762   -3.003249   -1.923116
     58          7           0       -3.247095   -2.623041   -1.723023
     59          6           0       -3.069977   -1.315512   -1.522577
     60          6           0       -3.770791    0.951265   -1.342793
     61          7           0       -2.545873    1.433711   -1.075872
     62          1           0       -0.626193    0.753784   -0.845330
     63          6           0       -1.650341    0.448564   -1.055668
     64          7           0       -1.825752   -0.861626   -1.256176
     65          1           0       -6.960622    1.027457   -1.863642
     66          6           0       -5.918668    0.735979   -1.728364
     67          7           0       -5.471410   -0.492928   -1.814634
     68          6           0       -4.110901   -0.370551   -1.572228
     69          6           0       -5.092392    3.119994   -1.279132
     70          7           0       -4.943669    1.661114   -1.445144
 ---------------------------------------------------------------------

 SCF Done:  E(RwB97XD) =  -2048.69989852     A.U. after   15 cycles

 The electronic state is 1-A.
 Alpha  occ. eigenvalues --  -19.25050 -19.21378 -19.20535 -14.52568 -14.51792
 Alpha  occ. eigenvalues --  -14.49045 -14.48357 -14.48344 -14.47240 -14.46659
 Alpha  occ. eigenvalues --  -14.46641 -14.46071 -14.44726 -14.44519 -14.42904
 Alpha  occ. eigenvalues --  -14.41891 -14.41584 -14.41071 -14.40794 -14.40476
 Alpha  occ. eigenvalues --  -10.44662 -10.41114 -10.40234 -10.39506 -10.38342
 Alpha  occ. eigenvalues --  -10.38126 -10.37460 -10.37150 -10.36178 -10.35857
 Alpha  occ. eigenvalues --  -10.34562 -10.34282 -10.34108 -10.33936 -10.33647
 Alpha  occ. eigenvalues --  -10.33277 -10.33037 -10.33033 -10.31714 -10.30547
 Alpha  occ. eigenvalues --  -10.30458 -10.28738 -10.27997  -1.19049  -1.15911
 Alpha  occ. eigenvalues --   -1.13153  -1.12443  -1.11616  -1.10393  -1.09670
 Alpha  occ. eigenvalues --   -1.08757  -1.08502  -1.05457  -1.05128  -1.01908
 Alpha  occ. eigenvalues --   -1.01537  -1.00953  -0.99672  -0.98514  -0.97398
 Alpha  occ. eigenvalues --   -0.97147  -0.96402  -0.93144  -0.90483  -0.88143
 Alpha  occ. eigenvalues --   -0.86509  -0.84348  -0.83982  -0.83227  -0.82806
 Alpha  occ. eigenvalues --   -0.82197  -0.78314  -0.77487  -0.75371  -0.74495
 Alpha  occ. eigenvalues --   -0.73567  -0.73305  -0.72855  -0.71436  -0.70839
 Alpha  occ. eigenvalues --   -0.67335  -0.67214  -0.66766  -0.66097  -0.64716
 Alpha  occ. eigenvalues --   -0.64383  -0.63779  -0.63182  -0.62642  -0.62171
 Alpha  occ. eigenvalues --   -0.61689  -0.60992  -0.60805  -0.59945  -0.59136
 Alpha  occ. eigenvalues --   -0.58391  -0.58186  -0.57857  -0.57048  -0.56302
 Alpha  occ. eigenvalues --   -0.56036  -0.55880  -0.55513  -0.54310  -0.54139
 Alpha  occ. eigenvalues --   -0.53931  -0.53887  -0.53359  -0.53270  -0.53074
 Alpha  occ. eigenvalues --   -0.52787  -0.52240  -0.52072  -0.51098  -0.50525
 Alpha  occ. eigenvalues --   -0.50216  -0.49820  -0.49326  -0.49076  -0.48830
 Alpha  occ. eigenvalues --   -0.48498  -0.48082  -0.48003  -0.47650  -0.47083
 Alpha  occ. eigenvalues --   -0.46977  -0.45701  -0.45206  -0.44630  -0.42704
 Alpha  occ. eigenvalues --   -0.41321  -0.41032  -0.39082  -0.38041  -0.37907
 Alpha  occ. eigenvalues --   -0.37834  -0.37222  -0.36772  -0.36056  -0.35149
 Alpha  occ. eigenvalues --   -0.34690  -0.34225  -0.33895  -0.33403  -0.32806
 Alpha  occ. eigenvalues --   -0.32412  -0.32015  -0.31698  -0.31446  -0.30969
 Alpha  occ. eigenvalues --   -0.30662  -0.29317  -0.25825  -0.25428
 Alpha virt. eigenvalues --    0.03306   0.03675   0.06800   0.07590   0.08893
 Alpha virt. eigenvalues --    0.09075   0.09541   0.09933   0.11055   0.12596
 Alpha virt. eigenvalues --    0.13089   0.13767   0.14085   0.14134   0.14521

 Mulliken charges:
               1
     1  N   -0.306258
     2  C    0.174101
     3  C    0.081136
     4  N   -0.258376
     5  C    0.136797
     6  H    0.026464
     7  N   -0.283170
     8  C    0.135226
     9  H    0.019215
    10  N   -0.285268
    11  C    0.224694
    12  C    0.076825
    13  N   -0.050670
    14  H    0.108670
    15  H    0.083423
    16  H    0.029645
    17  H    0.032407
    18  H    0.022946
    19  N   -0.263618
    20  C    0.198703
    21  C    0.191751
    22  N   -0.106272
    23  H    0.116458
    24  H    0.116367
    25  N   -0.290768
    26  C    0.216315
    27  N   -0.119997
    28  H    0.114179
    29  C    0.169789
    30  O   -0.320685
    31  C    0.011720
    32  N   -0.215690
    33  C    0.104956
    34  H    0.014883
    35  H    0.007948
    36  H    0.029248
    37  H    0.021164
    38  H    0.045373
    39  H    0.050047
    40  H    0.067888
    41  H    0.026023
    42  C   -0.106148
    43  O   -0.267891
    44  C    0.173067
    45  H    0.129435
    46  N   -0.115837
    47  O   -0.329339
    48  C    0.326814
    49  H    0.045223
    50  C    0.167402
    51  C    0.065909
    52  N   -0.275114
    53  H    0.039045
    54  H    0.042391
    55  H    0.025845
    56  H    0.123191
    57  H    0.119608
    58  N   -0.062382
    59  C    0.097150
    60  C    0.153965
    61  N   -0.240273
    62  H    0.018546
    63  C    0.156880
    64  N   -0.294861
    65  H    0.035923
    66  C    0.110416
    67  N   -0.243924
    68  C    0.065188
    69  C    0.177356
    70  N   -0.291175
 Sum of Mulliken charges =  -0.00000

 Dipole moment (field-independent basis, Debye):
    X=             -6.1131    Y=              6.9506    Z=             -3.8541  Tot=             10.0267
 Quadrupole moment (field-independent basis, Debye-Ang):
   XX=           -149.6418   YY=           -228.7519   ZZ=           -259.5578
   XY=             -7.1596   XZ=             -2.2358   YZ=             14.4631

 Normal termination of Gaussian 16 at Sat Jan 20 18:55:08 2018.
