 Gaussian 16, Revision A.03,
 Gaussian 16:  EM64L-G16RevA.03 25-Dec-2016

 ---------------------------------------
 #p wb97xd/cc-pvdz sp scf=(maxcycles=20)
 ---------------------------------------

 ------------------
 Base pair stacking
 ------------------
 Symbolic Z-matrix:
 Charge =  0 Multiplicity = 1

                         Standard orientation:
 ---------------------------------------------------------------------
 Center     Atomic      Atomic             Coordinates (Angstroms)
 Number     Number       Type             X           Y           Z
 ---------------------------------------------------------------------
      1          7           0        4.561305   -1.432994   -1.786881
      2          6           0        5.891173   -0.884024   -2.115639
      3          6           0        2.396580   -1.665333   -1.474890
      4          7           0        2.971290   -2.879252   -1.127244
      5          6           0        4.252441   -2.690691   -1.329124
      6          1           0        5.024097   -3.442019   -1.158845
      7          7           0        0.831793    0.051047   -1.885246
      8          6           0        1.871683    0.806896   -2.252533
      9          1           0        1.622469    1.819348   -2.567301
     10          7           0        3.167127    0.501286   -2.289190
     11          6           0        3.364163   -0.764009   -1.883459
     12          6           0        1.063061   -1.217450   -1.482139
     13          7           0        0.026320   -1.973509   -1.115119
     14          1           0        0.150780   -2.918222   -0.809749
     15          1           0       -0.909627   -1.621597   -1.132882
     16          1           0        6.308491   -1.430246   -2.842036
     17          1           0        5.795112    0.061779   -2.424447
     18          1           0        6.474828   -0.910247   -1.304064
     19          7           0        5.447051    1.416538    0.806872
     20          6           0        4.080355    1.534174    0.886513
     21          6           0        6.374025    2.491025    0.398326
     22          7           0        1.200870    3.445349    0.543429
     23          1           0        0.216062    3.323675    0.664226
     24          1           0        1.512940    4.346160    0.240320
     25          7           0        3.360425    2.642205    0.607174
     26          6           0        2.064958    2.446039    0.777158
     27          7           0        1.514595    1.256539    1.189130
     28          1           0        0.513151    1.197557    1.292073
     29          6           0        2.236161    0.103572    1.482124
     30          8           0        1.642107   -0.918738    1.846447
     31          6           0        3.629380    0.298850    1.304128
     32          7           0        4.691587   -0.576701    1.483073
     33          6           0        5.746881    0.128262    1.177153
     34          1           0        6.771596   -0.243859    1.204645
     35          1           0        6.882188    2.204465   -0.413118
     36          1           0        5.852070    3.316845    0.188899
     37          1           0        7.013915    2.682061    1.141867
     38          1           0       -4.559711    1.363326    0.990041
     39          1           0       -4.448026    1.605417    2.731756
     40          1           0       -3.173149    2.212104    1.674411
     41          1           0       -3.724656   -3.142869    2.454094
     42          6           0       -3.178117   -2.214112    2.289953
     43          8           0       -1.045369   -3.252591    2.297533
     44          6           0       -1.750129   -2.248011    2.203097
     45          1           0       -0.149822   -1.002504    1.927350
     46          7           0       -1.157780   -1.018881    1.994263
     47          8           0       -1.177097    1.230530    1.682842
     48          6           0       -1.789079    0.192983    1.866308
     49          1           0       -4.906829   -0.967737    2.227569
     50          6           0       -3.822129   -1.047394    2.169081
     51          6           0       -3.884099    1.414484    1.830867
     52          7           0       -3.165934    0.143691    1.961447
     53          1           0       -6.351260    3.338560   -2.412923
     54          1           0       -4.965105    3.559665   -1.581185
     55          1           0       -6.396075    3.555840   -0.796080
     56          1           0       -3.394044   -3.227737   -0.622890
     57          1           0       -5.077546   -2.964500   -0.704390
     58          7           0       -4.152250   -2.584527   -0.730348
     59          6           0       -3.939972   -1.277975   -0.900756
     60          6           0       -4.593302    0.987059   -1.224074
     61          7           0       -3.339902    1.469206   -1.254854
     62          1           0       -1.411616    0.789892   -1.110550
     63          6           0       -2.457107    0.484851   -1.097978
     64          7           0       -2.667728   -0.824364   -0.927168
     65          1           0       -7.823893    1.063016   -1.322586
     66          6           0       -6.775311    0.771807   -1.254665
     67          7           0       -6.352897   -0.456148   -1.077516
     68          6           0       -4.971113   -0.333789   -1.056265
     69          6           0       -5.878194    3.154068   -1.551430
     70          7           0       -5.764061    1.696304   -1.351721
 ---------------------------------------------------------------------

 SCF Done:  E(RwB97XD) =  -2048.74955689     A.U. after   15 cycles

 The electronic state is 1-A.
 Alpha  occ. eigenvalues --  -19.25266 -19.21528 -19.20652 -14.52821 -14.51733
 Alpha  occ. eigenvalues --  -14.49269 -14.48463 -14.48416 -14.47239 -14.46835
 Alpha  occ. eigenvalues --  -14.46701 -14.45684 -14.44737 -14.44733 -14.42747
 Alpha  occ. eigenvalues --  -14.42034 -14.41510 -14.41165 -14.40965 -14.40680
 Alpha  occ. eigenvalues --  -10.44844 -10.41268 -10.40343 -10.39604 -10.38325
 Alpha  occ. eigenvalues --  -10.38252 -10.37588 -10.37116 -10.36258 -10.35737
 Alpha  occ. eigenvalues --  -10.34644 -10.34184 -10.34132 -10.33904 -10.33763
 Alpha  occ. eigenvalues --  -10.33340 -10.33322 -10.33110 -10.31387 -10.30853
 Alpha  occ. eigenvalues --  -10.30477 -10.28529 -10.28415  -1.18831  -1.15586
 Alpha  occ. eigenvalues --   -1.13311  -1.12523  -1.11099  -1.10927  -1.09746
 Alpha  occ. eigenvalues --   -1.08683  -1.08551  -1.05317  -1.05203  -1.01868
 Alpha  occ. eigenvalues --   -1.01262  -1.00705  -0.99779  -0.98696  -0.97318
 Alpha  occ. eigenvalues --   -0.96960  -0.96739  -0.93008  -0.90404  -0.88022
 Alpha  occ. eigenvalues --   -0.86189  -0.84486  -0.83847  -0.82977  -0.82790
 Alpha  occ. eigenvalues --   -0.82266  -0.78273  -0.77371  -0.75230  -0.74885
 Alpha  occ. eigenvalues --   -0.73714  -0.72967  -0.72748  -0.71169  -0.70742
 Alpha  occ. eigenvalues --   -0.67535  -0.67131  -0.66378  -0.65971  -0.64570
 Alpha  occ. eigenvalues --   -0.64482  -0.63490  -0.62840  -0.62702  -0.61935
 Alpha  occ. eigenvalues --   -0.61029  -0.60774  -0.60569  -0.59747  -0.58994
 Alpha  occ. eigenvalues --   -0.58870  -0.58436  -0.57485  -0.56659  -0.55868
 Alpha  occ. eigenvalues --   -0.55802  -0.55680  -0.55501  -0.54539  -0.54178
 Alpha  occ. eigenvalues --   -0.53913  -0.53858  -0.53405  -0.53150  -0.53065
 Alpha  occ. eigenvalues --   -0.52579  -0.51720  -0.51694  -0.50617  -0.50462
 Alpha  occ. eigenvalues --   -0.50331  -0.50114  -0.49522  -0.49203  -0.48953
 Alpha  occ. eigenvalues --   -0.48825  -0.48255  -0.48158  -0.47848  -0.47170
 Alpha  occ. eigenvalues --   -0.46990  -0.45822  -0.45650  -0.44985  -0.42527
 Alpha  occ. eigenvalues --   -0.41329  -0.41030  -0.38984  -0.38210  -0.37929
 Alpha  occ. eigenvalues --   -0.37578  -0.37353  -0.37046  -0.35626  -0.35061
 Alpha  occ. eigenvalues --   -0.34672  -0.34157  -0.33528  -0.33447  -0.33069
 Alpha  occ. eigenvalues --   -0.32789  -0.32610  -0.31984  -0.31256  -0.30831
 Alpha  occ. eigenvalues --   -0.30604  -0.30393  -0.26198  -0.25486
 Alpha virt. eigenvalues --    0.02819   0.04348   0.06509   0.07720   0.08724
 Alpha virt. eigenvalues --    0.09065   0.09711   0.10191   0.10822   0.12328
 Alpha virt. eigenvalues --    0.13019   0.13708   0.14105   0.14506   0.14693

 Mulliken charges:
               1
     1  N   -0.301550
     2  C    0.183680
     3  C    0.057688
     4  N   -0.253461
     5  C    0.151226
     6  H    0.027278
     7  N   -0.290643
     8  C    0.124507
     9  H    0.009282
    10  N   -0.277913
    11  C    0.236245
    12  C    0.080159
    13  N   -0.059036
    14  H    0.116200
    15  H    0.086198
    16  H    0.025474
    17  H    0.031017
    18  H    0.013542
    19  N   -0.307524
    20  C    0.262890
    21  C    0.183769
    22  N   -0.120429
    23  H    0.120277
    24  H    0.118618
    25  N   -0.304040
    26  C    0.234088
    27  N   -0.133184
    28  H    0.120420
    29  C    0.184575
    30  O   -0.319645
    31  C   -0.016328
    32  N   -0.218763
    33  C    0.101409
    34  H    0.026966
    35  H    0.020656
    36  H    0.033027
    37  H    0.025573
    38  H    0.054945
    39  H    0.053757
    40  H    0.076339
    41  H    0.019409
    42  C   -0.103621
    43  O   -0.271123
    44  C    0.170610
    45  H    0.131274
    46  N   -0.121300
    47  O   -0.348631
    48  C    0.337971
    49  H    0.045835
    50  C    0.159232
    51  C    0.051129
    52  N   -0.274519
    53  H    0.035744
    54  H    0.041717
    55  H    0.029310
    56  H    0.124145
    57  H    0.117732
    58  N   -0.053418
    59  C    0.090790
    60  C    0.198089
    61  N   -0.255702
    62  H    0.028839
    63  C    0.168861
    64  N   -0.308822
    65  H    0.039238
    66  C    0.135599
    67  N   -0.254734
    68  C    0.031978
    69  C    0.179528
    70  N   -0.302452
 Sum of Mulliken charges =  -0.00000

 Dipole moment (field-independent basis, Debye):
    X=             -6.4234    Y=              7.4971    Z=             -2.0494  Tot=             10.0830
 Quadrupole moment (field-independent basis, Debye-Ang):
   XX=           -150.9728   YY=           -226.8030   ZZ=           -255.7266
   XY=             -2.5475   XZ=            -12.0264   YZ=             11.1269

 Normal termination of Gaussian 16 at Sat Jan 20 08:54:12 2018.
