 Gaussian 16, Revision A.03,
 Gaussian 16:  EM64L-G16RevA.03 25-Dec-2016

 ---------------------------------------
 #p wb97xd/cc-pvdz sp scf=(maxcycles=20)
 ---------------------------------------

 ------------------
 Base pair stacking
 ------------------
 Symbolic Z-matrix:
 Charge =  0 Multiplicity = 1

                         Standard orientation:
 ---------------------------------------------------------------------
 Center     Atomic      Atomic             Coordinates (Angstroms)
 Number     Number       Type             X           Y           Z
 ---------------------------------------------------------------------
      1          7           0        5.777190   -1.356151   -1.003771
      2          6           0        7.114028   -0.753477   -1.170028
      3          6           0        3.602235   -1.681601   -0.972470
      4          7           0        4.177511   -2.859832   -0.519116
      5          6           0        5.464814   -2.616611   -0.556119
      6          1           0        6.238724   -3.327592   -0.265382
      7          7           0        2.033201   -0.048700   -1.631817
      8          6           0        3.079092    0.746338   -1.880014
      9          1           0        2.830446    1.739144   -2.252519
     10          7           0        4.379915    0.500264   -1.737824
     11          6           0        4.575733   -0.745503   -1.275080
     12          6           0        2.263407   -1.296144   -1.167084
     13          7           0        1.220662   -2.091254   -0.918736
     14          1           0        1.344113   -3.022377   -0.573789
     15          1           0        0.281059   -1.783481   -1.068918
     16          1           0        7.646962   -1.295362   -1.820038
     17          1           0        7.019128    0.179984   -1.514675
     18          1           0        7.585662   -0.735140   -0.288426
     19          7           0        4.245553    1.744487    1.226291
     20          6           0        2.876477    1.800175    1.123323
     21          6           0        5.176647    2.815340    0.817610
     22          7           0       -0.004358    3.515057    0.216828
     23          1           0       -0.991314    3.356912    0.228212
     24          1           0        0.310290    4.393326   -0.144233
     25          7           0        2.157599    2.834200    0.635426
     26          6           0        0.859212    2.591488    0.665376
     27          7           0        0.305183    1.425960    1.136666
     28          1           0       -0.698314    1.327328    1.121398
     29          6           0        1.025615    0.348826    1.643251
     30          8           0        0.428180   -0.657949    2.043505
     31          6           0        2.421938    0.594800    1.617553
     32          7           0        3.484265   -0.201598    2.022644
     33          6           0        4.543126    0.519723    1.772250
     34          1           0        5.568998    0.205276    1.967149
     35          1           0        5.794806    2.470531    0.112075
     36          1           0        4.655502    3.586626    0.454563
     37          1           0        5.708550    3.116538    1.608283
     38          1           0       -5.693399    1.201616    0.180133
     39          1           0       -5.814670    1.632551    1.884315
     40          1           0       -4.438339    2.187721    0.930983
     41          1           0       -4.885905   -3.075369    2.229985
     42          6           0       -4.357716   -2.142666    2.031722
     43          8           0       -2.206399   -3.064534    2.417920
     44          6           0       -2.930089   -2.112841    2.125769
     45          1           0       -1.355003   -0.823777    1.911892
     46          7           0       -2.361927   -0.884265    1.855533
     47          8           0       -2.424723    1.315475    1.294824
     48          6           0       -3.016217    0.273464    1.516224
     49          1           0       -6.109297   -0.999584    1.618034
     50          6           0       -5.023824   -1.029671    1.702887
     51          6           0       -5.133355    1.376051    1.086765
     52          7           0       -4.391125    0.164505    1.445946
     53          1           0       -5.151398    2.890834   -3.188398
     54          1           0       -3.898397    3.193737   -2.188229
     55          1           0       -5.419226    3.140658   -1.598025
     56          1           0       -2.177621   -3.491452   -0.845595
     57          1           0       -3.845253   -3.308196   -1.154664
     58          7           0       -2.941875   -2.886464   -1.069341
     59          6           0       -2.765295   -1.575483   -1.246276
     60          6           0       -3.466860    0.649385   -1.714762
     61          7           0       -2.242331    1.188224   -1.593938
     62          1           0       -0.322709    0.602123   -1.179042
     63          6           0       -1.346568    0.249378   -1.295481
     64          7           0       -1.521451   -1.064175   -1.117861
     65          1           0       -6.656210    0.573664   -2.238700
     66          6           0       -5.614308    0.332817   -2.025689
     67          7           0       -5.166651   -0.870164   -1.760892
     68          6           0       -3.806414   -0.683583   -1.561751
     69          6           0       -4.789088    2.747067   -2.267496
     70          7           0       -4.639816    1.300792   -2.014503
 ---------------------------------------------------------------------

 SCF Done:  E(RwB97XD) =  -2048.75220646     A.U. after   15 cycles

 The electronic state is 1-A.
 Alpha  occ. eigenvalues --  -19.25506 -19.21695 -19.20523 -14.52454 -14.52085
 Alpha  occ. eigenvalues --  -14.49115 -14.48475 -14.47817 -14.47490 -14.46761
 Alpha  occ. eigenvalues --  -14.46440 -14.45553 -14.44162 -14.44137 -14.42664
 Alpha  occ. eigenvalues --  -14.41855 -14.41605 -14.41369 -14.40732 -14.40566
 Alpha  occ. eigenvalues --  -10.45088 -10.41080 -10.39823 -10.39749 -10.38117
 Alpha  occ. eigenvalues --  -10.38037 -10.37381 -10.37146 -10.35780 -10.35607
 Alpha  occ. eigenvalues --  -10.35029 -10.34317 -10.34144 -10.34114 -10.33675
 Alpha  occ. eigenvalues --  -10.33391 -10.33184 -10.32610 -10.31551 -10.30689
 Alpha  occ. eigenvalues --  -10.30426 -10.28784 -10.27914  -1.19152  -1.15265
 Alpha  occ. eigenvalues --   -1.13056  -1.12726  -1.11642  -1.10379  -1.09127
 Alpha  occ. eigenvalues --   -1.08971  -1.08403  -1.05387  -1.04599  -1.02180
 Alpha  occ. eigenvalues --   -1.00999  -1.00823  -0.99538  -0.98386  -0.97298
 Alpha  occ. eigenvalues --   -0.96648  -0.96346  -0.93062  -0.90682  -0.87652
 Alpha  occ. eigenvalues --   -0.86011  -0.84304  -0.83874  -0.83474  -0.82717
 Alpha  occ. eigenvalues --   -0.82177  -0.78506  -0.76984  -0.74786  -0.74410
 Alpha  occ. eigenvalues --   -0.73468  -0.73232  -0.73052  -0.71389  -0.70334
 Alpha  occ. eigenvalues --   -0.67196  -0.66680  -0.66660  -0.66221  -0.64224
 Alpha  occ. eigenvalues --   -0.64154  -0.63550  -0.63084  -0.62498  -0.61588
 Alpha  occ. eigenvalues --   -0.61373  -0.60706  -0.60419  -0.59461  -0.59163
 Alpha  occ. eigenvalues --   -0.58422  -0.58163  -0.57204  -0.56935  -0.56178
 Alpha  occ. eigenvalues --   -0.55840  -0.55701  -0.55324  -0.54344  -0.54038
 Alpha  occ. eigenvalues --   -0.53860  -0.53410  -0.53375  -0.53236  -0.52746
 Alpha  occ. eigenvalues --   -0.52702  -0.52288  -0.52212  -0.51106  -0.50580
 Alpha  occ. eigenvalues --   -0.49942  -0.49897  -0.49202  -0.49187  -0.48716
 Alpha  occ. eigenvalues --   -0.48567  -0.48310  -0.48161  -0.47331  -0.47200
 Alpha  occ. eigenvalues --   -0.47154  -0.45811  -0.45150  -0.44717  -0.43276
 Alpha  occ. eigenvalues --   -0.41388  -0.40691  -0.39186  -0.37745  -0.37529
 Alpha  occ. eigenvalues --   -0.37488  -0.37157  -0.37071  -0.36059  -0.34608
 Alpha  occ. eigenvalues --   -0.34256  -0.34044  -0.33735  -0.33540  -0.32946
 Alpha  occ. eigenvalues --   -0.32502  -0.32204  -0.31790  -0.31724  -0.31164
 Alpha  occ. eigenvalues --   -0.30830  -0.29472  -0.25980  -0.25287
 Alpha virt. eigenvalues --    0.03503   0.03928   0.07151   0.07428   0.08486
 Alpha virt. eigenvalues --    0.09029   0.09939   0.10498   0.10880   0.12143
 Alpha virt. eigenvalues --    0.13169   0.13876   0.13942   0.14387   0.14786

 Mulliken charges:
               1
     1  N   -0.308539
     2  C    0.176030
     3  C    0.073356
     4  N   -0.254136
     5  C    0.133081
     6  H    0.026950
     7  N   -0.288218
     8  C    0.136312
     9  H    0.012807
    10  N   -0.285794
    11  C    0.224867
    12  C    0.093173
    13  N   -0.048243
    14  H    0.110843
    15  H    0.085785
    16  H    0.028282
    17  H    0.035221
    18  H    0.022497
    19  N   -0.290008
    20  C    0.240078
    21  C    0.183893
    22  N   -0.113151
    23  H    0.115347
    24  H    0.116248
    25  N   -0.302053
    26  C    0.228172
    27  N   -0.142129
    28  H    0.121669
    29  C    0.179495
    30  O   -0.323730
    31  C   -0.011086
    32  N   -0.218396
    33  C    0.120988
    34  H    0.016192
    35  H    0.021259
    36  H    0.028030
    37  H    0.020517
    38  H    0.045610
    39  H    0.060838
    40  H    0.073448
    41  H    0.024375
    42  C   -0.109691
    43  O   -0.269670
    44  C    0.165897
    45  H    0.131677
    46  N   -0.115658
    47  O   -0.337371
    48  C    0.332953
    49  H    0.044732
    50  C    0.174751
    51  C    0.044829
    52  N   -0.276675
    53  H    0.036088
    54  H    0.039520
    55  H    0.020566
    56  H    0.125679
    57  H    0.118256
    58  N   -0.056177
    59  C    0.096824
    60  C    0.215665
    61  N   -0.260275
    62  H    0.038204
    63  C    0.147854
    64  N   -0.298038
    65  H    0.037193
    66  C    0.106991
    67  N   -0.249306
    68  C    0.040637
    69  C    0.182428
    70  N   -0.297767
 Sum of Mulliken charges =  -0.00000

 Dipole moment (field-independent basis, Debye):
    X=             -6.1563    Y=              6.4541    Z=             -3.7218  Tot=              9.6648
 Quadrupole moment (field-independent basis, Debye-Ang):
   XX=           -147.1386   YY=           -225.2821   ZZ=           -259.3695
   XY=             -9.3512   XZ=              2.7966   YZ=              8.1522

 Normal termination of Gaussian 16 at Sat Jan 20 22:41:48 2018.
