 Gaussian 16, Revision A.03,
 Gaussian 16:  EM64L-G16RevA.03 25-Dec-2016

 ---------------------------------------
 #p wb97xd/cc-pvdz sp scf=(maxcycles=20)
 ---------------------------------------

 ------------------
 Base pair stacking
 ------------------
 Symbolic Z-matrix:
 Charge =  0 Multiplicity = 1

                         Standard orientation:
 ---------------------------------------------------------------------
 Center     Atomic      Atomic             Coordinates (Angstroms)
 Number     Number       Type             X           Y           Z
 ---------------------------------------------------------------------
      1          7           0        5.480125   -1.399509   -1.206598
      2          6           0        6.819287   -0.811610   -1.404197
      3          6           0        3.302958   -1.697429   -1.114554
      4          7           0        3.875832   -2.889659   -0.696095
      5          6           0        5.164576   -2.662456   -0.768299
      6          1           0        5.937318   -3.387626   -0.511489
      7          7           0        1.736726   -0.034754   -1.702265
      8          6           0        2.785192    0.750438   -1.970162
      9          1           0        2.538721    1.751861   -2.320382
     10          7           0        4.086303    0.485562   -1.870866
     11          6           0        4.279305   -0.769459   -1.432580
     12          6           0        1.964131   -1.291916   -1.263055
     13          7           0        0.918828   -2.077225   -0.995099
     14          1           0        1.040157   -3.014959   -0.667742
     15          1           0       -0.020678   -1.755181   -1.112362
     16          1           0        7.325271   -1.350430   -2.077860
     17          1           0        6.726516    0.128079   -1.732078
     18          1           0        7.317307   -0.812629   -0.537034
     19          7           0        4.555525    1.655273    1.132910
     20          6           0        3.184849    1.730091    1.072074
     21          6           0        5.488123    2.720130    0.712137
     22          7           0        0.301210    3.495310    0.278099
     23          1           0       -0.686985    3.349691    0.316888
     24          1           0        0.616552    4.374807   -0.079350
     25          7           0        2.465486    2.780512    0.621298
     26          6           0        1.165467    2.554071    0.686793
     27          7           0        0.610361    1.388772    1.157399
     28          1           0       -0.394365    1.303278    1.170930
     29          6           0        1.331253    0.294969    1.626173
     30          8           0        0.732733   -0.709981    2.029410
     31          6           0        2.729326    0.523345    1.562015
     32          7           0        3.792624   -0.292662    1.923173
     33          6           0        4.853010    0.418707    1.651601
     34          1           0        5.879992    0.088203    1.810869
     35          1           0        6.080244    2.378086   -0.016703
     36          1           0        4.966639    3.503430    0.376319
     37          1           0        6.047416    3.002514    1.490761
     38          1           0       -5.416627    1.255945    0.378871
     39          1           0       -5.481077    1.662645    2.092082
     40          1           0       -4.126649    2.214406    1.105965
     41          1           0       -4.605032   -3.061489    2.340428
     42          6           0       -4.070666   -2.132762    2.140060
     43          8           0       -1.921200   -3.087912    2.447663
     44          6           0       -2.640601   -2.122702    2.191472
     45          1           0       -1.055631   -0.850898    1.949175
     46          7           0       -2.064498   -0.897583    1.922310
     47          8           0       -2.114828    1.310990    1.396117
     48          6           0       -2.713209    0.273439    1.619914
     49          1           0       -5.818500   -0.961174    1.796168
     50          6           0       -4.731474   -1.006468    1.847818
     51          6           0       -4.827415    1.409473    1.270682
     52          7           0       -4.090940    0.183210    1.589500
     53          1           0       -5.451562    3.019945   -2.998286
     54          1           0       -4.165254    3.291618   -2.031991
     55          1           0       -5.668301    3.249180   -1.397069
     56          1           0       -2.494056   -3.434600   -0.840162
     57          1           0       -4.167612   -3.225302   -1.096112
     58          7           0       -3.256562   -2.816557   -1.031871
     59          6           0       -3.067943   -1.505424   -1.194764
     60          6           0       -3.753602    0.735085   -1.609167
     61          7           0       -2.518938    1.256267   -1.517397
     62          1           0       -0.595721    0.639365   -1.169189
     63          6           0       -1.627197    0.301604   -1.259881
     64          7           0       -1.814125   -1.012128   -1.096394
     65          1           0       -6.957920    0.708239   -2.037812
     66          6           0       -5.913408    0.450840   -1.859853
     67          7           0       -5.474051   -0.761651   -1.626374
     68          6           0       -4.106094   -0.595571   -1.465587
     69          6           0       -5.063777    2.857669   -2.090934
     70          7           0       -4.926241    1.405944   -1.863813
 ---------------------------------------------------------------------

 SCF Done:  E(RwB97XD) =  -2048.75136432     A.U. after   15 cycles

 The electronic state is 1-A.
 Alpha  occ. eigenvalues --  -19.25382 -19.21676 -19.20537 -14.52555 -14.51985
 Alpha  occ. eigenvalues --  -14.48929 -14.48636 -14.48030 -14.47413 -14.46744
 Alpha  occ. eigenvalues --  -14.46531 -14.45660 -14.44383 -14.44323 -14.42627
 Alpha  occ. eigenvalues --  -14.41902 -14.41420 -14.41256 -14.40888 -14.40566
 Alpha  occ. eigenvalues --  -10.44977 -10.41127 -10.39934 -10.39775 -10.38153
 Alpha  occ. eigenvalues --  -10.38114 -10.37273 -10.37254 -10.35850 -10.35724
 Alpha  occ. eigenvalues --  -10.34777 -10.34246 -10.34175 -10.34159 -10.33555
 Alpha  occ. eigenvalues --  -10.33361 -10.33318 -10.32744 -10.31464 -10.30695
 Alpha  occ. eigenvalues --  -10.30692 -10.28682 -10.28039  -1.19054  -1.15408
 Alpha  occ. eigenvalues --   -1.13090  -1.12687  -1.11475  -1.10481  -1.09316
 Alpha  occ. eigenvalues --   -1.08910  -1.08448  -1.05327  -1.04788  -1.02099
 Alpha  occ. eigenvalues --   -1.01121  -1.00738  -0.99602  -0.98434  -0.97181
 Alpha  occ. eigenvalues --   -0.96834  -0.96479  -0.93009  -0.90623  -0.87763
 Alpha  occ. eigenvalues --   -0.86093  -0.84179  -0.84010  -0.83338  -0.82623
 Alpha  occ. eigenvalues --   -0.82345  -0.78440  -0.77119  -0.74924  -0.74520
 Alpha  occ. eigenvalues --   -0.73511  -0.73142  -0.72978  -0.71293  -0.70465
 Alpha  occ. eigenvalues --   -0.67277  -0.66833  -0.66571  -0.66155  -0.64311
 Alpha  occ. eigenvalues --   -0.64224  -0.63602  -0.62996  -0.62525  -0.61680
 Alpha  occ. eigenvalues --   -0.61476  -0.60698  -0.60510  -0.59579  -0.59106
 Alpha  occ. eigenvalues --   -0.58518  -0.58246  -0.57251  -0.56849  -0.56112
 Alpha  occ. eigenvalues --   -0.55823  -0.55663  -0.55392  -0.54103  -0.53892
 Alpha  occ. eigenvalues --   -0.53874  -0.53629  -0.53440  -0.53411  -0.52905
 Alpha  occ. eigenvalues --   -0.52806  -0.52162  -0.52107  -0.50934  -0.50493
 Alpha  occ. eigenvalues --   -0.50103  -0.49970  -0.49180  -0.49150  -0.48727
 Alpha  occ. eigenvalues --   -0.48617  -0.48340  -0.48217  -0.47435  -0.47185
 Alpha  occ. eigenvalues --   -0.47122  -0.45973  -0.45015  -0.44936  -0.43097
 Alpha  occ. eigenvalues --   -0.41224  -0.40837  -0.39079  -0.37898  -0.37657
 Alpha  occ. eigenvalues --   -0.37404  -0.37188  -0.37091  -0.36092  -0.34733
 Alpha  occ. eigenvalues --   -0.34376  -0.34101  -0.33722  -0.33444  -0.32943
 Alpha  occ. eigenvalues --   -0.32550  -0.32227  -0.31802  -0.31764  -0.31117
 Alpha  occ. eigenvalues --   -0.30734  -0.29525  -0.25979  -0.25377
 Alpha virt. eigenvalues --    0.03483   0.03820   0.07063   0.07637   0.08686
 Alpha virt. eigenvalues --    0.09166   0.09824   0.10319   0.10746   0.12408
 Alpha virt. eigenvalues --    0.13051   0.13725   0.14072   0.14393   0.14655

 Mulliken charges:
               1
     1  N   -0.306296
     2  C    0.174713
     3  C    0.073348
     4  N   -0.254581
     5  C    0.136786
     6  H    0.026449
     7  N   -0.289305
     8  C    0.134635
     9  H    0.012317
    10  N   -0.283858
    11  C    0.226124
    12  C    0.086622
    13  N   -0.047672
    14  H    0.111432
    15  H    0.084073
    16  H    0.028267
    17  H    0.035467
    18  H    0.020345
    19  N   -0.292267
    20  C    0.247226
    21  C    0.184830
    22  N   -0.117919
    23  H    0.118010
    24  H    0.116937
    25  N   -0.302923
    26  C    0.235554
    27  N   -0.137255
    28  H    0.115301
    29  C    0.181828
    30  O   -0.322799
    31  C   -0.014665
    32  N   -0.216965
    33  C    0.113289
    34  H    0.017141
    35  H    0.021128
    36  H    0.029700
    37  H    0.021545
    38  H    0.049151
    39  H    0.059512
    40  H    0.073807
    41  H    0.023285
    42  C   -0.103777
    43  O   -0.269686
    44  C    0.165175
    45  H    0.130123
    46  N   -0.112066
    47  O   -0.339116
    48  C    0.332298
    49  H    0.045454
    50  C    0.168177
    51  C    0.048450
    52  N   -0.276923
    53  H    0.036147
    54  H    0.040587
    55  H    0.022396
    56  H    0.125758
    57  H    0.117661
    58  N   -0.056281
    59  C    0.088327
    60  C    0.199321
    61  N   -0.257371
    62  H    0.028241
    63  C    0.158183
    64  N   -0.297991
    65  H    0.035710
    66  C    0.110710
    67  N   -0.249435
    68  C    0.051212
    69  C    0.182135
    70  N   -0.295737
 Sum of Mulliken charges =  -0.00000

 Dipole moment (field-independent basis, Debye):
    X=             -6.2019    Y=              6.7044    Z=             -3.4336  Tot=              9.7571
 Quadrupole moment (field-independent basis, Debye-Ang):
   XX=           -148.4653   YY=           -225.3096   ZZ=           -259.2484
   XY=             -7.8166   XZ=             -1.2404   YZ=              9.0217

 Normal termination of Gaussian 16 at Sat Jan 20 23:18:25 2018.
