 Gaussian 16, Revision A.03,
 Gaussian 16:  EM64L-G16RevA.03 25-Dec-2016

 ---------------------------------------
 #p wb97xd/cc-pvdz sp scf=(maxcycles=20)
 ---------------------------------------

 ------------------
 Base pair stacking
 ------------------
 Symbolic Z-matrix:
 Charge =  0 Multiplicity = 1

                         Standard orientation:
 ---------------------------------------------------------------------
 Center     Atomic      Atomic             Coordinates (Angstroms)
 Number     Number       Type             X           Y           Z
 ---------------------------------------------------------------------
      1          7           0        4.223970   -2.254776   -1.376631
      2          6           0        5.516822   -2.027081   -2.050958
      3          6           0        2.095874   -2.191196   -0.824858
      4          7           0        2.706476   -3.045662    0.081664
      5          6           0        3.964141   -3.049766   -0.287042
      6          1           0        4.752570   -3.620155    0.204855
      7          7           0        0.490152   -0.907930   -1.981515
      8          6           0        1.489414   -0.515453   -2.778388
      9          1           0        1.207241    0.174227   -3.572729
     10          7           0        2.778845   -0.845474   -2.741532
     11          6           0        3.018561   -1.695973   -1.729800
     12          6           0        0.763773   -1.763953   -0.972827
     13          7           0       -0.232380   -2.156879   -0.176296
     14          1           0       -0.075761   -2.789631    0.582865
     15          1           0       -1.168676   -1.832361   -0.311161
     16          1           0        5.873468   -2.896477   -2.393208
     17          1           0        5.388192   -1.396461   -2.815733
     18          1           0        6.168543   -1.633530   -1.402604
     19          7           0        5.734012    1.626432    0.178288
     20          6           0        4.377488    1.815670    0.288251
     21          6           0        6.669841    2.536979   -0.511503
     22          7           0        1.542176    3.711448   -0.366592
     23          1           0        0.561878    3.662000   -0.177327
     24          1           0        1.864598    4.503171   -0.886137
     25          7           0        3.677215    2.856852   -0.211361
     26          6           0        2.387193    2.759323    0.056857
     27          7           0        1.824024    1.722289    0.760368
     28          1           0        0.828060    1.730290    0.918321
     29          6           0        2.525311    0.640546    1.283724
     30          8           0        1.921007   -0.243338    1.903648
     31          6           0        3.912457    0.731336    1.003625
     32          7           0        4.956036   -0.121488    1.336089
     33          6           0        6.014344    0.448648    0.827037
     34          1           0        7.027549    0.051220    0.895911
     35          1           0        7.125938    2.048531   -1.254605
     36          1           0        6.162456    3.312088   -0.885717
     37          1           0        7.353302    2.869423    0.137460
     38          1           0       -4.246482    2.030265    0.809713
     39          1           0       -4.036322    2.666675    2.439271
     40          1           0       -2.801218    2.957186    1.213929
     41          1           0       -3.470322   -2.041312    3.252336
     42          6           0       -2.905722   -1.199728    2.850848
     43          8           0       -0.807409   -2.294941    3.007969
     44          6           0       -1.485920   -1.311819    2.711519
     45          1           0        0.134105   -0.231938    2.080859
     46          7           0       -0.868993   -0.190680    2.194110
     47          8           0       -0.837607    1.923099    1.364551
     48          6           0       -1.469753    0.983011    1.813209
     49          1           0       -4.597432    0.068051    2.573908
     50          6           0       -3.520145   -0.067725    2.487999
     51          6           0       -3.526417    2.248001    1.584422
     52          7           0       -2.840573    1.014081    1.977867
     53          1           0       -6.733257    1.863166   -3.662498
     54          1           0       -5.281960    2.442079   -3.192737
     55          1           0       -6.639724    2.923471   -2.425405
     56          1           0       -3.589079   -2.801526    1.176955
     57          1           0       -5.275036   -2.555042    1.093861
     58          7           0       -4.357979   -2.288423    0.795292
     59          6           0       -4.169874   -1.292724   -0.073253
     60          6           0       -4.863667    0.460551   -1.524593
     61          7           0       -3.620833    0.796763   -1.907663
     62          1           0       -1.682825    0.224893   -1.564616
     63          6           0       -2.721279    0.018892   -1.308810
     64          7           0       -2.907684   -0.978892   -0.438608
     65          1           0       -8.091134    0.604621   -1.402449
     66          6           0       -7.038696    0.353578   -1.267204
     67          7           0       -6.594435   -0.598748   -0.484009
     68          6           0       -5.216819   -0.541702   -0.637855
     69          6           0       -6.186352    2.155498   -2.878007
     70          7           0       -6.045750    1.035238   -1.927615
 ---------------------------------------------------------------------

 SCF Done:  E(RwB97XD) =  -2048.73970770     A.U. after   15 cycles

 The electronic state is 1-A.
 Alpha  occ. eigenvalues --  -19.25538 -19.21962 -19.20883 -14.52519 -14.52106
 Alpha  occ. eigenvalues --  -14.49532 -14.48105 -14.47949 -14.47534 -14.47197
 Alpha  occ. eigenvalues --  -14.47017 -14.45441 -14.44680 -14.44639 -14.42413
 Alpha  occ. eigenvalues --  -14.42167 -14.41801 -14.40726 -14.40345 -14.40250
 Alpha  occ. eigenvalues --  -10.45118 -10.41647 -10.40102 -10.40012 -10.38599
 Alpha  occ. eigenvalues --  -10.38042 -10.37425 -10.37400 -10.36088 -10.35250
 Alpha  occ. eigenvalues --  -10.34972 -10.34809 -10.34157 -10.33844 -10.33195
 Alpha  occ. eigenvalues --  -10.32957 -10.32894 -10.32879 -10.31581 -10.30718
 Alpha  occ. eigenvalues --  -10.30358 -10.28730 -10.28056  -1.19092  -1.15306
 Alpha  occ. eigenvalues --   -1.13615  -1.12966  -1.11206  -1.10594  -1.09672
 Alpha  occ. eigenvalues --   -1.08981  -1.08850  -1.05095  -1.04844  -1.02194
 Alpha  occ. eigenvalues --   -1.01039  -1.00225  -1.00117  -0.99031  -0.97258
 Alpha  occ. eigenvalues --   -0.97165  -0.96212  -0.92545  -0.90798  -0.87788
 Alpha  occ. eigenvalues --   -0.85938  -0.84759  -0.83371  -0.83310  -0.83093
 Alpha  occ. eigenvalues --   -0.81761  -0.78664  -0.77185  -0.75177  -0.75041
 Alpha  occ. eigenvalues --   -0.74047  -0.73124  -0.72462  -0.70719  -0.70550
 Alpha  occ. eigenvalues --   -0.67846  -0.67005  -0.66334  -0.65893  -0.64840
 Alpha  occ. eigenvalues --   -0.64487  -0.63726  -0.63022  -0.62339  -0.62227
 Alpha  occ. eigenvalues --   -0.60684  -0.60425  -0.60077  -0.59419  -0.59283
 Alpha  occ. eigenvalues --   -0.59118  -0.58740  -0.57362  -0.56181  -0.56019
 Alpha  occ. eigenvalues --   -0.55676  -0.55404  -0.55155  -0.54650  -0.54354
 Alpha  occ. eigenvalues --   -0.53914  -0.53801  -0.53691  -0.53409  -0.53054
 Alpha  occ. eigenvalues --   -0.52824  -0.52145  -0.51227  -0.50627  -0.50384
 Alpha  occ. eigenvalues --   -0.50116  -0.49784  -0.49703  -0.49468  -0.49200
 Alpha  occ. eigenvalues --   -0.48668  -0.48466  -0.48385  -0.47952  -0.47479
 Alpha  occ. eigenvalues --   -0.46518  -0.45840  -0.45737  -0.44712  -0.42749
 Alpha  occ. eigenvalues --   -0.40901  -0.40823  -0.39298  -0.38127  -0.37849
 Alpha  occ. eigenvalues --   -0.37724  -0.37677  -0.36645  -0.35650  -0.35026
 Alpha  occ. eigenvalues --   -0.34602  -0.34372  -0.33434  -0.33207  -0.33140
 Alpha  occ. eigenvalues --   -0.32975  -0.32777  -0.32161  -0.31635  -0.30428
 Alpha  occ. eigenvalues --   -0.30148  -0.29952  -0.26134  -0.25392
 Alpha virt. eigenvalues --    0.02300   0.04478   0.06745   0.08312   0.08514
 Alpha virt. eigenvalues --    0.08866   0.09384   0.10383   0.11254   0.11853
 Alpha virt. eigenvalues --    0.13235   0.13497   0.14153   0.14755   0.15109

 Mulliken charges:
               1
     1  N   -0.305700
     2  C    0.184524
     3  C    0.044936
     4  N   -0.245796
     5  C    0.154324
     6  H    0.026390
     7  N   -0.299116
     8  C    0.128789
     9  H    0.008747
    10  N   -0.284678
    11  C    0.240091
    12  C    0.083118
    13  N   -0.065333
    14  H    0.119810
    15  H    0.089573
    16  H    0.022976
    17  H    0.030332
    18  H    0.016926
    19  N   -0.311404
    20  C    0.258867
    21  C    0.181919
    22  N   -0.123710
    23  H    0.118880
    24  H    0.119750
    25  N   -0.312728
    26  C    0.252322
    27  N   -0.148550
    28  H    0.120576
    29  C    0.198714
    30  O   -0.316827
    31  C   -0.016899
    32  N   -0.225554
    33  C    0.113396
    34  H    0.026069
    35  H    0.024838
    36  H    0.032315
    37  H    0.026528
    38  H    0.060963
    39  H    0.057803
    40  H    0.075107
    41  H    0.017500
    42  C   -0.123729
    43  O   -0.275387
    44  C    0.170294
    45  H    0.132209
    46  N   -0.122853
    47  O   -0.353627
    48  C    0.351569
    49  H    0.044127
    50  C    0.180787
    51  C    0.042683
    52  N   -0.278175
    53  H    0.034455
    54  H    0.042689
    55  H    0.029198
    56  H    0.127455
    57  H    0.115551
    58  N   -0.047589
    59  C    0.071980
    60  C    0.233269
    61  N   -0.264834
    62  H    0.034699
    63  C    0.168406
    64  N   -0.309369
    65  H    0.039438
    66  C    0.140369
    67  N   -0.261204
    68  C    0.029485
    69  C    0.179611
    70  N   -0.311294
 Sum of Mulliken charges =  -0.00000

 Dipole moment (field-independent basis, Debye):
    X=             -6.2762    Y=              7.6565    Z=             -2.9282  Tot=             10.3241
 Quadrupole moment (field-independent basis, Debye-Ang):
   XX=           -151.3188   YY=           -224.4958   ZZ=           -253.6153
   XY=             -6.4212   XZ=            -12.4512   YZ=             -1.1682

 Normal termination of Gaussian 16 at Sat Jan 20 22:29:25 2018.
