 Gaussian 16, Revision A.03,
 Gaussian 16:  EM64L-G16RevA.03 25-Dec-2016

 ---------------------------------------
 #p wb97xd/cc-pvdz sp scf=(maxcycles=20)
 ---------------------------------------

 ------------------
 Base pair stacking
 ------------------
 Symbolic Z-matrix:
 Charge =  0 Multiplicity = 1

                         Standard orientation:
 ---------------------------------------------------------------------
 Center     Atomic      Atomic             Coordinates (Angstroms)
 Number     Number       Type             X           Y           Z
 ---------------------------------------------------------------------
      1          7           0       -5.180887   -2.141206    0.726426
      2          6           0       -6.505511   -1.910874    1.334963
      3          6           0       -3.016359   -2.161483    0.336891
      4          7           0       -3.607093   -2.840232   -0.719074
      5          6           0       -4.887495   -2.800852   -0.442126
      6          1           0       -5.669600   -3.241008   -1.061425
      7          7           0       -1.427943   -1.165515    1.767948
      8          6           0       -2.459617   -0.810262    2.540621
      9          1           0       -2.197325   -0.255246    3.440293
     10          7           0       -3.760557   -1.036608    2.369602
     11          6           0       -3.973801   -1.724711    1.235815
     12          6           0       -1.675506   -1.856993    0.634084
     13          7           0       -0.646979   -2.212510   -0.138517
     14          1           0       -0.783517   -2.725179   -0.986898
     15          1           0        0.294579   -1.978659    0.104207
     16          1           0       -6.942388   -2.789498    1.528217
     17          1           0       -6.397410   -1.398992    2.186680
     18          1           0       -7.078099   -1.387533    0.703898
     19          7           0       -4.840981    2.094522   -0.315560
     20          6           0       -3.470746    2.196364   -0.304439
     21          6           0       -5.768250    2.971412    0.427376
     22          7           0       -0.580776    3.774071    0.800412
     23          1           0        0.406212    3.678266    0.674204
     24          1           0       -0.891968    4.511057    1.401011
     25          7           0       -2.747051    3.107280    0.381528
     26          6           0       -1.448778    2.951673    0.192027
     27          7           0       -0.899244    1.979036   -0.607656
     28          1           0        0.104534    1.934679   -0.693903
     29          6           0       -1.624664    1.031271   -1.322764
     30          8           0       -1.031012    0.195836   -2.015839
     31          6           0       -3.020916    1.185778   -1.129159
     32          7           0       -4.087289    0.464013   -1.647612
     33          6           0       -5.143877    1.037566   -1.138799
     34          1           0       -6.171764    0.728530   -1.331726
     35          1           0       -6.311283    2.423200    1.062492
     36          1           0       -5.243537    3.650270    0.939325
     37          1           0       -6.376246    3.436787   -0.214942
     38          1           0        5.163726    1.843165   -0.195041
     39          1           0        5.122774    2.704791   -1.731454
     40          1           0        3.816397    2.919532   -0.565848
     41          1           0        4.324271   -1.798290   -3.225172
     42          6           0        3.784569   -0.978460   -2.751020
     43          8           0        1.639681   -1.885519   -3.202529
     44          6           0        2.353962   -1.003300   -2.726813
     45          1           0        0.761381    0.099181   -2.066080
     46          7           0        1.770857    0.081216   -2.103065
     47          8           0        1.808919    2.062104   -0.993189
     48          6           0        2.413268    1.146243   -1.522912
     49          1           0        5.526476    0.113103   -2.185294
     50          6           0        4.439325    0.046760   -2.193527
     51          6           0        4.521875    2.214609   -0.979982
     52          7           0        3.791972    1.097991   -1.586730
     53          1           0        5.802930    0.817560    4.310423
     54          1           0        4.432624    1.559158    3.826283
     55          1           0        5.874182    2.037254    3.228440
     56          1           0        2.757685   -2.916372   -1.333138
     57          1           0        4.444182   -2.807930   -1.100636
     58          7           0        3.525342   -2.516704   -0.832038
     59          6           0        3.333393   -1.634520    0.150861
     60          6           0        4.021310   -0.146176    1.875187
     61          7           0        2.776157    0.226547    2.214436
     62          1           0        0.838585   -0.150284    1.662693
     63          6           0        1.878701   -0.396233    1.453106
     64          7           0        2.068956   -1.280132    0.468164
     65          1           0        7.251027   -0.225065    1.997076
     66          6           0        6.198616   -0.377698    1.756130
     67          7           0        5.757486   -1.181840    0.819947
     68          6           0        4.378474   -1.044564    0.884802
     69          6           0        5.338868    1.251287    3.538071
     70          7           0        5.202290    0.281091    2.434419
 ---------------------------------------------------------------------

 SCF Done:  E(RwB97XD) =  -2048.73300709     A.U. after   15 cycles

 The electronic state is 1-A.
 Alpha  occ. eigenvalues --  -19.25670 -19.22669 -19.20851 -14.52336 -14.52069
 Alpha  occ. eigenvalues --  -14.49122 -14.48340 -14.47883 -14.47505 -14.47110
 Alpha  occ. eigenvalues --  -14.46907 -14.45356 -14.44192 -14.44181 -14.42244
 Alpha  occ. eigenvalues --  -14.41901 -14.41268 -14.40725 -14.40723 -14.40128
 Alpha  occ. eigenvalues --  -10.45223 -10.41483 -10.40529 -10.39570 -10.38477
 Alpha  occ. eigenvalues --  -10.37861 -10.37059 -10.36811 -10.35629 -10.35145
 Alpha  occ. eigenvalues --  -10.35019 -10.34659 -10.33761 -10.33738 -10.33527
 Alpha  occ. eigenvalues --  -10.33011 -10.32896 -10.32581 -10.31224 -10.31163
 Alpha  occ. eigenvalues --  -10.30905 -10.28420 -10.28134  -1.19255  -1.15087
 Alpha  occ. eigenvalues --   -1.13647  -1.13447  -1.10920  -1.10856  -1.09285
 Alpha  occ. eigenvalues --   -1.08973  -1.08788  -1.04803  -1.04699  -1.02575
 Alpha  occ. eigenvalues --   -1.00862  -1.00129  -0.99981  -0.98800  -0.96910
 Alpha  occ. eigenvalues --   -0.96803  -0.96450  -0.92462  -0.90863  -0.87494
 Alpha  occ. eigenvalues --   -0.85768  -0.84428  -0.83613  -0.83475  -0.82808
 Alpha  occ. eigenvalues --   -0.82043  -0.78717  -0.76895  -0.74921  -0.74712
 Alpha  occ. eigenvalues --   -0.73880  -0.73375  -0.72572  -0.70758  -0.70264
 Alpha  occ. eigenvalues --   -0.67658  -0.66901  -0.66249  -0.65965  -0.64725
 Alpha  occ. eigenvalues --   -0.64224  -0.63714  -0.62845  -0.62396  -0.62041
 Alpha  occ. eigenvalues --   -0.60635  -0.60298  -0.60176  -0.59301  -0.59178
 Alpha  occ. eigenvalues --   -0.58981  -0.58610  -0.57014  -0.56299  -0.56106
 Alpha  occ. eigenvalues --   -0.56004  -0.55274  -0.55039  -0.54421  -0.54314
 Alpha  occ. eigenvalues --   -0.53875  -0.53765  -0.53515  -0.53342  -0.53214
 Alpha  occ. eigenvalues --   -0.52638  -0.52348  -0.51523  -0.50554  -0.50472
 Alpha  occ. eigenvalues --   -0.50072  -0.49768  -0.49708  -0.49434  -0.49136
 Alpha  occ. eigenvalues --   -0.48729  -0.48620  -0.48020  -0.47928  -0.47571
 Alpha  occ. eigenvalues --   -0.46677  -0.46064  -0.45302  -0.44584  -0.42761
 Alpha  occ. eigenvalues --   -0.40791  -0.40569  -0.39352  -0.38183  -0.37538
 Alpha  occ. eigenvalues --   -0.37470  -0.37349  -0.36776  -0.36202  -0.34479
 Alpha  occ. eigenvalues --   -0.34337  -0.33959  -0.33808  -0.33282  -0.33106
 Alpha  occ. eigenvalues --   -0.32942  -0.32533  -0.32282  -0.32006  -0.30616
 Alpha  occ. eigenvalues --   -0.30190  -0.28771  -0.26035  -0.25152
 Alpha virt. eigenvalues --    0.02975   0.04404   0.07412   0.08012   0.08400
 Alpha virt. eigenvalues --    0.09086   0.09461   0.10474   0.11278   0.12054
 Alpha virt. eigenvalues --    0.12928   0.13422   0.14265   0.14589   0.15125

 Mulliken charges:
               1
     1  N   -0.308071
     2  C    0.181054
     3  C    0.055722
     4  N   -0.246810
     5  C    0.139001
     6  H    0.023942
     7  N   -0.297145
     8  C    0.133150
     9  H    0.009834
    10  N   -0.289253
    11  C    0.238042
    12  C    0.089503
    13  N   -0.046120
    14  H    0.117203
    15  H    0.084351
    16  H    0.025758
    17  H    0.032371
    18  H    0.016840
    19  N   -0.310055
    20  C    0.260574
    21  C    0.182074
    22  N   -0.124452
    23  H    0.117963
    24  H    0.119184
    25  N   -0.312252
    26  C    0.250441
    27  N   -0.149639
    28  H    0.119744
    29  C    0.195421
    30  O   -0.322925
    31  C   -0.017959
    32  N   -0.217890
    33  C    0.119896
    34  H    0.020848
    35  H    0.026279
    36  H    0.030995
    37  H    0.024623
    38  H    0.055755
    39  H    0.059565
    40  H    0.074034
    41  H    0.019566
    42  C   -0.107843
    43  O   -0.277032
    44  C    0.157982
    45  H    0.129098
    46  N   -0.103405
    47  O   -0.350371
    48  C    0.339051
    49  H    0.043057
    50  C    0.168705
    51  C    0.044076
    52  N   -0.278668
    53  H    0.034174
    54  H    0.042616
    55  H    0.025693
    56  H    0.124367
    57  H    0.113641
    58  N   -0.040936
    59  C    0.078106
    60  C    0.236118
    61  N   -0.268622
    62  H    0.033201
    63  C    0.165812
    64  N   -0.303399
    65  H    0.036177
    66  C    0.127192
    67  N   -0.260056
    68  C    0.036898
    69  C    0.181249
    70  N   -0.308048
 Sum of Mulliken charges =  -0.00000

 Dipole moment (field-independent basis, Debye):
    X=              6.2921    Y=              6.3525    Z=              4.2958  Tot=              9.9196
 Quadrupole moment (field-independent basis, Debye-Ang):
   XX=           -149.3500   YY=           -225.7561   ZZ=           -253.7754
   XY=              6.7602   XZ=             -0.0548   YZ=              6.8049

 Normal termination of Gaussian 16 at Sat Jan 20 20:06:15 2018.
