 Gaussian 16, Revision A.03,
 Gaussian 16:  EM64L-G16RevA.03 25-Dec-2016

 ---------------------------------------
 #p wb97xd/cc-pvdz sp scf=(maxcycles=20)
 ---------------------------------------

 ------------------
 Base pair stacking
 ------------------
 Symbolic Z-matrix:
 Charge =  0 Multiplicity = 1

                         Standard orientation:
 ---------------------------------------------------------------------
 Center     Atomic      Atomic             Coordinates (Angstroms)
 Number     Number       Type             X           Y           Z
 ---------------------------------------------------------------------
      1          7           0        6.334039   -1.169579   -0.650747
      2          6           0        7.657939   -0.518050   -0.679137
      3          6           0        4.172963   -1.555823   -0.784443
      4          7           0        4.758404   -2.753997   -0.401878
      5          6           0        6.036939   -2.473343   -0.336643
      6          1           0        6.814957   -3.186237   -0.062024
      7          7           0        2.593490    0.086412   -1.393778
      8          6           0        3.625726    0.928878   -1.504835
      9          1           0        3.367378    1.944078   -1.802976
     10          7           0        4.923072    0.706620   -1.303842
     11          6           0        5.131594   -0.570007   -0.941658
     12          6           0        2.836254   -1.191106   -1.027603
     13          7           0        1.807169   -2.033566   -0.916207
     14          1           0        1.940219   -2.988296   -0.647849
     15          1           0        0.868643   -1.739298   -1.097090
     16          1           0        8.246320   -0.984334   -1.339868
     17          1           0        7.553268    0.439736   -0.945210
     18          1           0        8.075102   -0.566447    0.228402
     19          7           0        3.640626    1.775713    1.411739
     20          6           0        2.278922    1.801805    1.229684
     21          6           0        4.569771    2.868861    1.061865
     22          7           0       -0.581986    3.457489    0.164024
     23          1           0       -1.564194    3.277622    0.117497
     24          1           0       -0.266574    4.344290   -0.174823
     25          7           0        1.566691    2.822237    0.704821
     26          6           0        0.274471    2.550877    0.658425
     27          7           0       -0.279858    1.371065    1.092330
     28          1           0       -1.278337    1.250461    1.018468
     29          6           0        0.433791    0.307474    1.635791
     30          8           0       -0.163284   -0.714221    1.996858
     31          6           0        1.823435    0.584226    1.692112
     32          7           0        2.877969   -0.190664    2.155166
     33          6           0        3.933247    0.555045    1.969386
     34          1           0        4.952841    0.262250    2.222319
     35          1           0        5.235298    2.541321    0.392089
     36          1           0        4.053515    3.630323    0.672113
     37          1           0        5.048141    3.177654    1.883218
     38          1           0       -6.206456    1.019700   -0.211623
     39          1           0       -6.435833    1.439195    1.484276
     40          1           0       -5.019261    2.029337    0.614551
     41          1           0       -5.424128   -3.248855    1.865397
     42          6           0       -4.906221   -2.303763    1.701661
     43          8           0       -2.760918   -3.180042    2.208579
     44          6           0       -3.487467   -2.243024    1.878537
     45          1           0       -1.931708   -0.918558    1.761334
     46          7           0       -2.932082   -1.000893    1.646396
     47          8           0       -3.011218    1.199759    1.091350
     48          6           0       -3.591202    0.143871    1.274086
     49          1           0       -6.655892   -1.197395    1.191350
     50          6           0       -5.576754   -1.204034    1.338940
     51          6           0       -5.703912    1.201790    0.726651
     52          7           0       -4.956963    0.005058    1.123698
     53          1           0       -4.577598    2.956977   -3.130908
     54          1           0       -3.397333    3.202546   -2.031466
     55          1           0       -4.948200    3.054911   -1.544565
     56          1           0       -1.541635   -3.526975   -1.179807
     57          1           0       -3.192890   -3.362226   -1.575197
     58          7           0       -2.310567   -2.925392   -1.396596
     59          6           0       -2.166807   -1.599454   -1.445588
     60          6           0       -2.911681    0.638605   -1.758625
     61          7           0       -1.714919    1.197599   -1.514284
     62          1           0        0.194617    0.629132   -1.033532
     63          6           0       -0.808303    0.260488   -1.244504
     64          7           0       -0.950318   -1.068025   -1.194944
     65          1           0       -6.059740    0.523344   -2.485680
     66          6           0       -5.025115    0.292819   -2.230029
     67          7           0       -4.554894   -0.916462   -2.045087
     68          6           0       -3.215870   -0.711518   -1.745534
     69          6           0       -4.266549    2.740681   -2.205457
     70          7           0       -4.085328    1.282097   -2.072406
 ---------------------------------------------------------------------

 SCF Done:  E(RwB97XD) =  -2048.74352756     A.U. after   15 cycles

 The electronic state is 1-A.
 Alpha  occ. eigenvalues --  -19.25721 -19.21833 -19.20451 -14.52371 -14.52094
 Alpha  occ. eigenvalues --  -14.49511 -14.48297 -14.47720 -14.47485 -14.46496
 Alpha  occ. eigenvalues --  -14.46093 -14.45081 -14.43664 -14.43615 -14.42956
 Alpha  occ. eigenvalues --  -14.42060 -14.41757 -14.41746 -14.40893 -14.40545
 Alpha  occ. eigenvalues --  -10.45373 -10.40811 -10.39955 -10.39377 -10.37940
 Alpha  occ. eigenvalues --  -10.37632 -10.37588 -10.36737 -10.36147 -10.35554
 Alpha  occ. eigenvalues --  -10.35276 -10.34715 -10.34071 -10.34069 -10.33929
 Alpha  occ. eigenvalues --  -10.33797 -10.33037 -10.32056 -10.31730 -10.30848
 Alpha  occ. eigenvalues --  -10.29818 -10.29199 -10.27717  -1.19400  -1.14808
 Alpha  occ. eigenvalues --   -1.12981  -1.12862  -1.12064  -1.10265  -1.09245
 Alpha  occ. eigenvalues --   -1.08676  -1.08246  -1.05745  -1.04222  -1.02388
 Alpha  occ. eigenvalues --   -1.01204  -1.00608  -0.99319  -0.98273  -0.97664
 Alpha  occ. eigenvalues --   -0.96260  -0.96137  -0.93421  -0.90887  -0.87318
 Alpha  occ. eigenvalues --   -0.85755  -0.84670  -0.83833  -0.83632  -0.83028
 Alpha  occ. eigenvalues --   -0.81844  -0.78730  -0.76628  -0.74454  -0.74241
 Alpha  occ. eigenvalues --   -0.73599  -0.73361  -0.73201  -0.71792  -0.70021
 Alpha  occ. eigenvalues --   -0.67056  -0.66998  -0.66429  -0.66327  -0.64343
 Alpha  occ. eigenvalues --   -0.63908  -0.63426  -0.63399  -0.62499  -0.61379
 Alpha  occ. eigenvalues --   -0.61133  -0.60926  -0.60242  -0.59387  -0.59199
 Alpha  occ. eigenvalues --   -0.58353  -0.57953  -0.57387  -0.57221  -0.56380
 Alpha  occ. eigenvalues --   -0.56041  -0.55827  -0.55134  -0.54766  -0.54250
 Alpha  occ. eigenvalues --   -0.54068  -0.53276  -0.53173  -0.52773  -0.52555
 Alpha  occ. eigenvalues --   -0.52447  -0.52377  -0.52252  -0.51374  -0.50872
 Alpha  occ. eigenvalues --   -0.49829  -0.49780  -0.49300  -0.49088  -0.48822
 Alpha  occ. eigenvalues --   -0.48463  -0.48256  -0.47967  -0.47643  -0.47259
 Alpha  occ. eigenvalues --   -0.47151  -0.45452  -0.45363  -0.44278  -0.43551
 Alpha  occ. eigenvalues --   -0.41880  -0.40449  -0.39372  -0.37958  -0.37390
 Alpha  occ. eigenvalues --   -0.37315  -0.36996  -0.36917  -0.35701  -0.34468
 Alpha  occ. eigenvalues --   -0.34238  -0.33988  -0.33864  -0.33328  -0.33022
 Alpha  occ. eigenvalues --   -0.32460  -0.31989  -0.31794  -0.31654  -0.31573
 Alpha  occ. eigenvalues --   -0.31141  -0.29271  -0.26446  -0.24959
 Alpha virt. eigenvalues --    0.03178   0.04543   0.07197   0.07579   0.08316
 Alpha virt. eigenvalues --    0.09007   0.09999   0.10382   0.11005   0.11699
 Alpha virt. eigenvalues --    0.13168   0.13502   0.14317   0.14648   0.14806

 Mulliken charges:
               1
     1  N   -0.310977
     2  C    0.178851
     3  C    0.064406
     4  N   -0.255698
     5  C    0.131402
     6  H    0.028365
     7  N   -0.277702
     8  C    0.135047
     9  H    0.016060
    10  N   -0.288045
    11  C    0.226646
    12  C    0.099786
    13  N   -0.046043
    14  H    0.109421
    15  H    0.089172
    16  H    0.028409
    17  H    0.034386
    18  H    0.025317
    19  N   -0.288220
    20  C    0.236151
    21  C    0.179925
    22  N   -0.097302
    23  H    0.113052
    24  H    0.112528
    25  N   -0.297055
    26  C    0.209090
    27  N   -0.141035
    28  H    0.130244
    29  C    0.155275
    30  O   -0.323698
    31  C    0.009994
    32  N   -0.221356
    33  C    0.121397
    34  H    0.019458
    35  H    0.020029
    36  H    0.024930
    37  H    0.019397
    38  H    0.040943
    39  H    0.062551
    40  H    0.074194
    41  H    0.028555
    42  C   -0.109446
    43  O   -0.267727
    44  C    0.173691
    45  H    0.132999
    46  N   -0.126823
    47  O   -0.339392
    48  C    0.341793
    49  H    0.045200
    50  C    0.180328
    51  C    0.041254
    52  N   -0.279429
    53  H    0.035099
    54  H    0.035320
    55  H    0.015750
    56  H    0.123163
    57  H    0.119330
    58  N   -0.059325
    59  C    0.117091
    60  C    0.237514
    61  N   -0.282082
    62  H    0.037436
    63  C    0.162097
    64  N   -0.304547
    65  H    0.039433
    66  C    0.102279
    67  N   -0.245275
    68  C    0.009950
    69  C    0.182202
    70  N   -0.295726
 Sum of Mulliken charges =  -0.00000

 Dipole moment (field-independent basis, Debye):
    X=             -5.8659    Y=              6.0072    Z=             -4.0387  Tot=              9.3170
 Quadrupole moment (field-independent basis, Debye-Ang):
   XX=           -144.3616   YY=           -226.7696   ZZ=           -258.7745
   XY=            -12.2675   XZ=              8.7791   YZ=              8.9242

 Normal termination of Gaussian 16 at Sat Jan 20 10:42:43 2018.
