 Gaussian 16, Revision A.03,
 Gaussian 16:  EM64L-G16RevA.03 25-Dec-2016

 ---------------------------------------
 #p wb97xd/cc-pvdz sp scf=(maxcycles=20)
 ---------------------------------------

 ------------------
 Base pair stacking
 ------------------
 Symbolic Z-matrix:
 Charge =  0 Multiplicity = 1

                         Standard orientation:
 ---------------------------------------------------------------------
 Center     Atomic      Atomic             Coordinates (Angstroms)
 Number     Number       Type             X           Y           Z
 ---------------------------------------------------------------------
      1          7           0       -4.858646   -2.248325    0.892690
      2          6           0       -6.173848   -2.043929    1.530236
      3          6           0       -2.704539   -2.216392    0.449839
      4          7           0       -3.301998   -2.928258   -0.580230
      5          6           0       -4.575855   -2.918998   -0.272201
      6          1           0       -5.360459   -3.390333   -0.864810
      7          7           0       -1.109626   -1.154276    1.825003
      8          6           0       -2.131501   -0.814375    2.617352
      9          1           0       -1.862669   -0.237663    3.501317
     10          7           0       -3.429512   -1.078657    2.482333
     11          6           0       -3.651387   -1.790931    1.365243
     12          6           0       -1.365701   -1.870844    0.708745
     13          7           0       -0.346962   -2.211093   -0.083451
     14          1           0       -0.490031   -2.741219   -0.919943
     15          1           0        0.593461   -1.947852    0.132068
     16          1           0       -6.581567   -2.930746    1.748182
     17          1           0       -6.059095   -1.515302    2.370773
     18          1           0       -6.775835   -1.546774    0.905374
     19          7           0       -5.151504    1.936509   -0.232246
     20          6           0       -3.784715    2.075588   -0.256805
     21          6           0       -6.084100    2.800118    0.519504
     22          7           0       -0.913086    3.749014    0.750725
     23          1           0        0.072778    3.677907    0.601561
     24          1           0       -1.229668    4.487132    1.347110
     25          7           0       -3.069804    3.016986    0.396431
     26          6           0       -1.772763    2.893475    0.177217
     27          7           0       -1.216396    1.923000   -0.620371
     28          1           0       -0.214184    1.904426   -0.730827
     29          6           0       -1.932726    0.944255   -1.302116
     30          8           0       -1.333450    0.113862   -1.996403
     31          6           0       -3.327561    1.064074   -1.076337
     32          7           0       -4.386042    0.305218   -1.556621
     33          6           0       -5.445247    0.858269   -1.030860
     34          1           0       -6.468657    0.518364   -1.193256
     35          1           0       -6.596209    2.247965    1.176532
     36          1           0       -5.565899    3.501303    1.007428
     37          1           0       -6.720170    3.238177   -0.114798
     38          1           0        4.856284    1.958214   -0.356481
     39          1           0        4.754171    2.792912   -1.904866
     40          1           0        3.471232    2.991424   -0.710698
     41          1           0        4.043498   -1.754212   -3.306717
     42          6           0        3.493198   -0.941572   -2.832348
     43          8           0        1.363669   -1.913714   -3.215969
     44          6           0        2.064832   -1.004744   -2.772199
     45          1           0        0.459169    0.064964   -2.089645
     46          7           0        1.467546    0.073740   -2.151417
     47          8           0        1.478244    2.072997   -1.074357
     48          6           0        2.094426    1.165210   -1.604368
     49          1           0        5.217743    0.205964   -2.327465
     50          6           0        4.132964    0.110076   -2.307612
     51          6           0        4.185505    2.299112   -1.131009
     52          7           0        3.471958    1.153271   -1.701658
     53          1           0        6.123936    1.065636    4.155211
     54          1           0        4.722361    1.761759    3.693589
     55          1           0        6.135210    2.268778    3.052597
     56          1           0        3.045571   -2.842128   -1.351019
     57          1           0        4.733632   -2.684229   -1.162260
     58          7           0        3.813968   -2.413597   -0.875555
     59          6           0        3.621902   -1.520815    0.097705
     60          6           0        4.310555    0.013908    1.780594
     61          7           0        3.064270    0.358324    2.144739
     62          1           0        1.124902   -0.079913    1.647366
     63          6           0        2.165957   -0.301032    1.415914
     64          7           0        2.356332   -1.195598    0.440683
     65          1           0        7.543230    0.024530    1.823412
     66          6           0        6.489832   -0.160502    1.611142
     67          7           0        6.048251   -0.991658    0.699073
     68          6           0        4.667988   -0.890719    0.796001
     69          6           0        5.629418    1.473822    3.387866
     70          7           0        5.492644    0.482175    2.303455
 ---------------------------------------------------------------------

 SCF Done:  E(RwB97XD) =  -2048.73205910     A.U. after   15 cycles

 The electronic state is 1-A.
 Alpha  occ. eigenvalues --  -19.25570 -19.22578 -19.20847 -14.52465 -14.52075
 Alpha  occ. eigenvalues --  -14.49247 -14.48182 -14.47736 -14.47685 -14.47109
 Alpha  occ. eigenvalues --  -14.46923 -14.45442 -14.44384 -14.44371 -14.42275
 Alpha  occ. eigenvalues --  -14.41958 -14.41426 -14.40701 -14.40563 -14.40158
 Alpha  occ. eigenvalues --  -10.45137 -10.41510 -10.40372 -10.39753 -10.38496
 Alpha  occ. eigenvalues --  -10.37982 -10.37252 -10.36849 -10.35842 -10.35157
 Alpha  occ. eigenvalues --  -10.34929 -10.34736 -10.33865 -10.33829 -10.33396
 Alpha  occ. eigenvalues --  -10.32948 -10.32877 -10.32765 -10.31343 -10.31053
 Alpha  occ. eigenvalues --  -10.30748 -10.28504 -10.28087  -1.19157  -1.15223
 Alpha  occ. eigenvalues --   -1.13484  -1.13444  -1.10988  -1.10747  -1.09466
 Alpha  occ. eigenvalues --   -1.08943  -1.08792  -1.04899  -1.04777  -1.02429
 Alpha  occ. eigenvalues --   -1.00982  -1.00126  -1.00003  -0.98852  -0.97009
 Alpha  occ. eigenvalues --   -0.96962  -0.96358  -0.92466  -0.90834  -0.87643
 Alpha  occ. eigenvalues --   -0.85875  -0.84522  -0.83511  -0.83399  -0.82897
 Alpha  occ. eigenvalues --   -0.81945  -0.78712  -0.77037  -0.74992  -0.74851
 Alpha  occ. eigenvalues --   -0.73912  -0.73269  -0.72510  -0.70718  -0.70417
 Alpha  occ. eigenvalues --   -0.67703  -0.66968  -0.66275  -0.65909  -0.64806
 Alpha  occ. eigenvalues --   -0.64349  -0.63678  -0.62881  -0.62348  -0.62091
 Alpha  occ. eigenvalues --   -0.60651  -0.60368  -0.60186  -0.59350  -0.59179
 Alpha  occ. eigenvalues --   -0.59056  -0.58634  -0.57119  -0.56246  -0.55992
 Alpha  occ. eigenvalues --   -0.55947  -0.55339  -0.55066  -0.54410  -0.54210
 Alpha  occ. eigenvalues --   -0.53851  -0.53818  -0.53606  -0.53390  -0.53281
 Alpha  occ. eigenvalues --   -0.52737  -0.52312  -0.51418  -0.50542  -0.50436
 Alpha  occ. eigenvalues --   -0.50094  -0.49813  -0.49701  -0.49394  -0.49112
 Alpha  occ. eigenvalues --   -0.48756  -0.48622  -0.48175  -0.48084  -0.47531
 Alpha  occ. eigenvalues --   -0.46612  -0.45997  -0.45663  -0.44578  -0.42523
 Alpha  occ. eigenvalues --   -0.40796  -0.40705  -0.39293  -0.38252  -0.37617
 Alpha  occ. eigenvalues --   -0.37552  -0.37503  -0.36709  -0.36040  -0.34659
 Alpha  occ. eigenvalues --   -0.34390  -0.34125  -0.33701  -0.33166  -0.33050
 Alpha  occ. eigenvalues --   -0.33019  -0.32714  -0.32088  -0.32043  -0.30553
 Alpha  occ. eigenvalues --   -0.30157  -0.28886  -0.26069  -0.25196
 Alpha virt. eigenvalues --    0.02603   0.04324   0.07235   0.08181   0.08749
 Alpha virt. eigenvalues --    0.08887   0.09467   0.10427   0.11293   0.11928
 Alpha virt. eigenvalues --    0.12876   0.13414   0.14231   0.14604   0.15253

 Mulliken charges:
               1
     1  N   -0.306816
     2  C    0.182365
     3  C    0.051164
     4  N   -0.247283
     5  C    0.146258
     6  H    0.024112
     7  N   -0.297191
     8  C    0.131528
     9  H    0.009488
    10  N   -0.287546
    11  C    0.239403
    12  C    0.086488
    13  N   -0.051853
    14  H    0.118889
    15  H    0.086352
    16  H    0.025128
    17  H    0.031785
    18  H    0.015259
    19  N   -0.311012
    20  C    0.260878
    21  C    0.182123
    22  N   -0.124521
    23  H    0.118262
    24  H    0.119335
    25  N   -0.312599
    26  C    0.251233
    27  N   -0.148984
    28  H    0.120386
    29  C    0.194778
    30  O   -0.320970
    31  C   -0.016154
    32  N   -0.219378
    33  C    0.116103
    34  H    0.022863
    35  H    0.025356
    36  H    0.031575
    37  H    0.025279
    38  H    0.057638
    39  H    0.058721
    40  H    0.074361
    41  H    0.017667
    42  C   -0.108351
    43  O   -0.275481
    44  C    0.165308
    45  H    0.129666
    46  N   -0.111318
    47  O   -0.352486
    48  C    0.342817
    49  H    0.042575
    50  C    0.165528
    51  C    0.044596
    52  N   -0.277045
    53  H    0.034442
    54  H    0.042825
    55  H    0.027187
    56  H    0.123073
    57  H    0.114348
    58  N   -0.041334
    59  C    0.079868
    60  C    0.235489
    61  N   -0.267200
    62  H    0.033292
    63  C    0.168149
    64  N   -0.308178
    65  H    0.037695
    66  C    0.132839
    67  N   -0.259937
    68  C    0.029248
    69  C    0.180520
    70  N   -0.308601
 Sum of Mulliken charges =  -0.00000

 Dipole moment (field-independent basis, Debye):
    X=              6.3043    Y=              6.6877    Z=              4.0918  Tot=             10.0605
 Quadrupole moment (field-independent basis, Debye-Ang):
   XX=           -149.8833   YY=           -225.4572   ZZ=           -253.8019
   XY=              7.3971   XZ=             -4.0148   YZ=              5.9811

 Normal termination of Gaussian 16 at Sat Jan 20 20:54:18 2018.
