 Gaussian 16, Revision A.03,
 Gaussian 16:  EM64L-G16RevA.03 25-Dec-2016

 ---------------------------------------
 #p wb97xd/cc-pvdz sp scf=(maxcycles=20)
 ---------------------------------------

 ------------------
 Base pair stacking
 ------------------
 Symbolic Z-matrix:
 Charge =  0 Multiplicity = 1

                         Standard orientation:
 ---------------------------------------------------------------------
 Center     Atomic      Atomic             Coordinates (Angstroms)
 Number     Number       Type             X           Y           Z
 ---------------------------------------------------------------------
      1          7           0       -5.178705   -1.990564    0.957789
      2          6           0       -6.507412   -1.651929    1.503552
      3          6           0       -3.010813   -2.088555    0.600087
      4          7           0       -3.596123   -2.936841   -0.328656
      5          6           0       -4.878771   -2.843853   -0.075985
      6          1           0       -5.657949   -3.380641   -0.617906
      7          7           0       -1.429293   -0.867878    1.853753
      8          6           0       -2.465776   -0.379244    2.542603
      9          1           0       -2.208237    0.321749    3.335417
     10          7           0       -3.766526   -0.625363    2.399820
     11          6           0       -3.973705   -1.498176    1.399965
     12          6           0       -1.670808   -1.743853    0.854039
     13          7           0       -0.637480   -2.232714    0.165275
     14          1           0       -0.769454   -2.883737   -0.583036
     15          1           0        0.303304   -1.965034    0.373656
     16          1           0       -6.951907   -2.481715    1.841294
     17          1           0       -6.403901   -1.000955    2.254984
     18          1           0       -7.070582   -1.242831    0.785585
     19          7           0       -4.847125    1.992825   -0.545896
     20          6           0       -3.476690    2.092283   -0.536787
     21          6           0       -5.775770    2.934385    0.111201
     22          7           0       -0.588140    3.755862    0.438156
     23          1           0        0.399212    3.647066    0.326101
     24          1           0       -0.900388    4.544074    0.969135
     25          7           0       -2.754038    3.059106    0.069088
     26          6           0       -1.455265    2.884429   -0.099071
     27          7           0       -0.904295    1.843270   -0.806133
     28          1           0        0.099774    1.789239   -0.882886
     29          6           0       -1.628627    0.837161   -1.437759
     30          8           0       -1.033727   -0.057963   -2.050618
     31          6           0       -3.025414    1.011301   -1.265922
     32          7           0       -4.091091    0.248549   -1.723568
     33          6           0       -5.148684    0.867405   -1.273324
     34          1           0       -6.176400    0.544636   -1.443286
     35          1           0       -6.323385    2.446075    0.789784
     36          1           0       -5.251833    3.654993    0.563387
     37          1           0       -6.379363    3.342019   -0.573148
     38          1           0        5.156175    1.731578   -0.351656
     39          1           0        5.125100    2.453062   -1.958874
     40          1           0        3.813522    2.773561   -0.823794
     41          1           0        4.322272   -2.163406   -3.049847
     42          6           0        3.782353   -1.303452   -2.653369
     43          8           0        1.637377   -2.242470   -3.033427
     44          6           0        2.351584   -1.322949   -2.634456
     45          1           0        0.758641   -0.162577   -2.082765
     46          7           0        1.768233   -0.185941   -2.112779
     47          8           0        1.805954    1.885824   -1.183489
     48          6           0        2.410537    0.925129   -1.626432
     49          1           0        5.524276   -0.169617   -2.178061
     50          6           0        4.437029   -0.234078   -2.185978
     51          6           0        4.519205    2.033039   -1.169860
     52          7           0        3.789404    0.868411   -1.678556
     53          1           0        5.790457    1.489544    4.089834
     54          1           0        4.429697    2.142948    3.470553
     55          1           0        5.879931    2.503316    2.814027
     56          1           0        2.773475   -3.149354   -0.854257
     57          1           0        4.458404   -3.010621   -0.626531
     58          7           0        3.539048   -2.672803   -0.421877
     59          6           0        3.343762   -1.632953    0.391602
     60          6           0        4.025366    0.127845    1.839605
     61          7           0        2.779583    0.559752    2.096354
     62          1           0        0.844809    0.102683    1.598026
     63          6           0        1.885185   -0.180918    1.444930
     64          7           0        2.078794   -1.222804    0.629714
     65          1           0        7.253199    0.055351    2.006788
     66          6           0        6.202102   -0.131483    1.784962
     67          7           0        5.764436   -1.083285    0.997426
     68          6           0        4.385821   -0.930066    1.023253
     69          6           0        5.336538    1.785406    3.249346
     70          7           0        5.203866    0.639592    2.328738
 ---------------------------------------------------------------------

 SCF Done:  E(RwB97XD) =  -2048.74210905     A.U. after   15 cycles

 The electronic state is 1-A.
 Alpha  occ. eigenvalues --  -19.25619 -19.22389 -19.20775 -14.52407 -14.52076
 Alpha  occ. eigenvalues --  -14.49071 -14.48426 -14.47727 -14.47649 -14.47029
 Alpha  occ. eigenvalues --  -14.46831 -14.45403 -14.44245 -14.44239 -14.42172
 Alpha  occ. eigenvalues --  -14.42056 -14.41231 -14.40833 -14.40831 -14.40241
 Alpha  occ. eigenvalues --  -10.45182 -10.41409 -10.40299 -10.39678 -10.38409
 Alpha  occ. eigenvalues --  -10.37917 -10.37115 -10.37000 -10.35702 -10.35267
 Alpha  occ. eigenvalues --  -10.35003 -10.34602 -10.33837 -10.33703 -10.33629
 Alpha  occ. eigenvalues --  -10.33108 -10.32994 -10.32616 -10.31175 -10.30993
 Alpha  occ. eigenvalues --  -10.30987 -10.28364 -10.28237  -1.19199  -1.15151
 Alpha  occ. eigenvalues --   -1.13379  -1.13332  -1.10975  -1.10834  -1.09278
 Alpha  occ. eigenvalues --   -1.08970  -1.08723  -1.04906  -1.04697  -1.02426
 Alpha  occ. eigenvalues --   -1.00898  -1.00247  -0.99908  -0.98732  -0.96861
 Alpha  occ. eigenvalues --   -0.96829  -0.96540  -0.92577  -0.90794  -0.87548
 Alpha  occ. eigenvalues --   -0.85825  -0.84372  -0.83707  -0.83435  -0.82754
 Alpha  occ. eigenvalues --   -0.82138  -0.78633  -0.76933  -0.74860  -0.74741
 Alpha  occ. eigenvalues --   -0.73808  -0.73250  -0.72678  -0.70859  -0.70283
 Alpha  occ. eigenvalues --   -0.67588  -0.66795  -0.66266  -0.66073  -0.64584
 Alpha  occ. eigenvalues --   -0.64163  -0.63754  -0.62781  -0.62508  -0.61977
 Alpha  occ. eigenvalues --   -0.60693  -0.60370  -0.60227  -0.59347  -0.59166
 Alpha  occ. eigenvalues --   -0.58937  -0.58542  -0.57020  -0.56396  -0.56133
 Alpha  occ. eigenvalues --   -0.55936  -0.55361  -0.55109  -0.54341  -0.54187
 Alpha  occ. eigenvalues --   -0.53784  -0.53737  -0.53531  -0.53388  -0.53153
 Alpha  occ. eigenvalues --   -0.52693  -0.52290  -0.51617  -0.50613  -0.50390
 Alpha  occ. eigenvalues --   -0.50157  -0.49795  -0.49573  -0.49239  -0.49049
 Alpha  occ. eigenvalues --   -0.48719  -0.48634  -0.48143  -0.47895  -0.47475
 Alpha  occ. eigenvalues --   -0.46771  -0.46034  -0.45287  -0.44642  -0.42858
 Alpha  occ. eigenvalues --   -0.40890  -0.40625  -0.39285  -0.38089  -0.37484
 Alpha  occ. eigenvalues --   -0.37440  -0.37382  -0.36881  -0.36145  -0.34487
 Alpha  occ. eigenvalues --   -0.34349  -0.33977  -0.33544  -0.33297  -0.33195
 Alpha  occ. eigenvalues --   -0.32886  -0.32537  -0.32165  -0.31988  -0.30708
 Alpha  occ. eigenvalues --   -0.30297  -0.29118  -0.26010  -0.25233
 Alpha virt. eigenvalues --    0.03114   0.04226   0.07326   0.07981   0.08494
 Alpha virt. eigenvalues --    0.09072   0.09525   0.10458   0.11174   0.12129
 Alpha virt. eigenvalues --    0.12932   0.13416   0.14319   0.14535   0.15062

 Mulliken charges:
               1
     1  N   -0.307308
     2  C    0.180510
     3  C    0.058148
     4  N   -0.248578
     5  C    0.139770
     6  H    0.024501
     7  N   -0.295800
     8  C    0.133455
     9  H    0.010062
    10  N   -0.288447
    11  C    0.237222
    12  C    0.087777
    13  N   -0.046439
    14  H    0.116285
    15  H    0.084210
    16  H    0.026157
    17  H    0.032381
    18  H    0.016794
    19  N   -0.308986
    20  C    0.261515
    21  C    0.182494
    22  N   -0.124460
    23  H    0.118228
    24  H    0.118909
    25  N   -0.312096
    26  C    0.250275
    27  N   -0.147849
    28  H    0.119408
    29  C    0.192257
    30  O   -0.322524
    31  C   -0.017606
    32  N   -0.218230
    33  C    0.118033
    34  H    0.020805
    35  H    0.025717
    36  H    0.031072
    37  H    0.024311
    38  H    0.054728
    39  H    0.059765
    40  H    0.074615
    41  H    0.019394
    42  C   -0.102755
    43  O   -0.274674
    44  C    0.157498
    45  H    0.129187
    46  N   -0.105763
    47  O   -0.349350
    48  C    0.338367
    49  H    0.044030
    50  C    0.168072
    51  C    0.044108
    52  N   -0.278198
    53  H    0.034463
    54  H    0.042289
    55  H    0.025261
    56  H    0.125541
    57  H    0.114194
    58  N   -0.045047
    59  C    0.077954
    60  C    0.230595
    61  N   -0.267195
    62  H    0.032244
    63  C    0.164061
    64  N   -0.302911
    65  H    0.036046
    66  C    0.125124
    67  N   -0.257849
    68  C    0.038371
    69  C    0.181488
    70  N   -0.305621
 Sum of Mulliken charges =  -0.00000

 Dipole moment (field-independent basis, Debye):
    X=              6.2966    Y=              6.5915    Z=              3.8266  Tot=              9.8863
 Quadrupole moment (field-independent basis, Debye-Ang):
   XX=           -149.2538   YY=           -224.1738   ZZ=           -256.2337
   XY=              7.0414   XZ=             -1.4043   YZ=              3.1609

 Normal termination of Gaussian 16 at Sat Jan 20 15:42:27 2018.
