 Gaussian 16, Revision A.03,
 Gaussian 16:  EM64L-G16RevA.03 25-Dec-2016

 ---------------------------------------
 #p wb97xd/cc-pvdz sp scf=(maxcycles=20)
 ---------------------------------------

 ------------------
 Base pair stacking
 ------------------
 Symbolic Z-matrix:
 Charge =  0 Multiplicity = 1

                         Standard orientation:
 ---------------------------------------------------------------------
 Center     Atomic      Atomic             Coordinates (Angstroms)
 Number     Number       Type             X           Y           Z
 ---------------------------------------------------------------------
      1          7           0       -7.152648   -0.983109    0.163092
      2          6           0       -8.465251   -0.309634    0.201857
      3          6           0       -5.007823   -1.430147    0.355911
      4          7           0       -5.593089   -2.563857   -0.188967
      5          6           0       -6.861851   -2.249161   -0.283324
      6          1           0       -7.636776   -2.908786   -0.674890
      7          7           0       -3.433987    0.096763    1.224557
      8          6           0       -4.456326    0.944020    1.381264
      9          1           0       -4.196480    1.912855    1.805649
     10          7           0       -5.745390    0.774988    1.093792
     11          6           0       -5.956607   -0.447367    0.578359
     12          6           0       -3.679210   -1.125274    0.703423
     13          7           0       -2.659990   -1.972425    0.546221
     14          1           0       -2.795221   -2.887357    0.164350
     15          1           0       -1.727027   -1.721564    0.804663
     16          1           0       -9.093949   -0.834574    0.775754
     17          1           0       -8.358205    0.609245    0.580444
     18          1           0       -8.836805   -0.245496   -0.724342
     19          7           0       -2.697218    1.981803   -1.557417
     20          6           0       -1.346548    1.958079   -1.306088
     21          6           0       -3.590570    3.132424   -1.315104
     22          7           0        1.531957    3.542965   -0.181747
     23          1           0        2.501149    3.322963   -0.074472
     24          1           0        1.241822    4.460172    0.092598
     25          7           0       -0.614446    2.973744   -0.799619
     26          6           0        0.659767    2.648851   -0.671408
     27          7           0        1.179308    1.423600   -1.012512
     28          1           0        2.166147    1.263520   -0.880263
     29          6           0        0.444699    0.363925   -1.535296
     30          8           0        1.010640   -0.701451   -1.809924
     31          6           0       -0.925966    0.697921   -1.678785
     32          7           0       -1.991174   -0.054352   -2.154534
     33          6           0       -3.018407    0.746151   -2.064012
     34          1           0       -4.036707    0.484870   -2.353987
     35          1           0       -4.303192    2.872045   -0.664591
     36          1           0       -3.059353    3.890886   -0.939874
     37          1           0       -4.012479    3.415962   -2.175574
     38          1           0        7.010725    0.884951    0.616222
     39          1           0        7.343616    1.199365   -1.085241
     40          1           0        5.914600    1.898450   -0.323301
     41          1           0        6.134263   -3.453609   -1.269312
     42          6           0        5.653554   -2.479060   -1.183279
     43          8           0        3.497581   -3.286974   -1.754393
     44          6           0        4.249753   -2.365937   -1.437036
     45          1           0        2.753663   -0.969939   -1.471782
     46          7           0        3.742127   -1.089645   -1.300507
     47          8           0        3.896231    1.132771   -0.859682
     48          6           0        4.434647    0.043922   -0.955552
     49          1           0        7.425400   -1.424071   -0.641667
     50          6           0        6.355833   -1.391451   -0.844900
     51          6           0        6.564573    1.036689   -0.355374
     52          7           0        5.783249   -0.146224   -0.726827
     53          1           0        3.687081    2.591123    3.622650
     54          1           0        2.568095    2.986038    2.502829
     55          1           0        4.138896    2.859993    2.077667
     56          1           0        0.645866   -3.560435    0.798682
     57          1           0        2.277557   -3.478465    1.289556
     58          7           0        1.412782   -3.004616    1.119692
     59          6           0        1.288864   -1.689914    1.312989
     60          6           0        2.054174    0.481039    1.915462
     61          7           0        0.880763    1.090705    1.679170
     62          1           0       -1.011271    0.623150    1.044950
     63          6           0       -0.026565    0.210683    1.260554
     64          7           0        0.095608   -1.106483    1.066318
     65          1           0        5.159134    0.213878    2.775687
     66          6           0        4.135047    0.036964    2.445706
     67          7           0        3.654679   -1.132755    2.101223
     68          6           0        2.336091   -0.865340    1.762785
     69          6           0        3.419597    2.488147    2.664612
     70          7           0        3.221039    1.058457    2.357065
 ---------------------------------------------------------------------

 SCF Done:  E(RwB97XD) =  -2048.74343544     A.U. after   15 cycles

 The electronic state is 1-A.
 Alpha  occ. eigenvalues --  -19.26069 -19.21998 -19.20595 -14.52529 -14.51247
 Alpha  occ. eigenvalues --  -14.49756 -14.48515 -14.47836 -14.46804 -14.46617
 Alpha  occ. eigenvalues --  -14.46295 -14.44232 -14.42907 -14.42704 -14.42552
 Alpha  occ. eigenvalues --  -14.42428 -14.42010 -14.41985 -14.41095 -14.40702
 Alpha  occ. eigenvalues --  -10.45611 -10.41157 -10.40088 -10.38285 -10.38198
 Alpha  occ. eigenvalues --  -10.37696 -10.36846 -10.36336 -10.35803 -10.35761
 Alpha  occ. eigenvalues --  -10.35067 -10.34413 -10.34260 -10.34238 -10.34075
 Alpha  occ. eigenvalues --  -10.33329 -10.33128 -10.31757 -10.31208 -10.31004
 Alpha  occ. eigenvalues --  -10.30344 -10.29584 -10.28061  -1.19585  -1.13937
 Alpha  occ. eigenvalues --   -1.13175  -1.13017  -1.12366  -1.10458  -1.09416
 Alpha  occ. eigenvalues --   -1.08554  -1.07614  -1.05955  -1.03181  -1.02503
 Alpha  occ. eigenvalues --   -1.01347  -0.99863  -0.99656  -0.98453  -0.97895
 Alpha  occ. eigenvalues --   -0.96382  -0.95241  -0.93574  -0.91026  -0.86413
 Alpha  occ. eigenvalues --   -0.84947  -0.84870  -0.84015  -0.83913  -0.83226
 Alpha  occ. eigenvalues --   -0.82207  -0.78887  -0.75648  -0.74536  -0.73832
 Alpha  occ. eigenvalues --   -0.73663  -0.73396  -0.73306  -0.72042  -0.69042
 Alpha  occ. eigenvalues --   -0.67365  -0.67212  -0.66579  -0.65359  -0.64463
 Alpha  occ. eigenvalues --   -0.63693  -0.63629  -0.62883  -0.62633  -0.61725
 Alpha  occ. eigenvalues --   -0.61030  -0.60129  -0.59527  -0.59231  -0.58785
 Alpha  occ. eigenvalues --   -0.58388  -0.58294  -0.57324  -0.57301  -0.56594
 Alpha  occ. eigenvalues --   -0.56148  -0.56037  -0.54727  -0.54413  -0.54263
 Alpha  occ. eigenvalues --   -0.53602  -0.53547  -0.52866  -0.52768  -0.52730
 Alpha  occ. eigenvalues --   -0.52446  -0.52070  -0.51678  -0.51570  -0.51051
 Alpha  occ. eigenvalues --   -0.50050  -0.49931  -0.49475  -0.48790  -0.48667
 Alpha  occ. eigenvalues --   -0.48551  -0.48185  -0.47917  -0.47734  -0.47570
 Alpha  occ. eigenvalues --   -0.47346  -0.45921  -0.45209  -0.44029  -0.43048
 Alpha  occ. eigenvalues --   -0.42134  -0.39600  -0.39463  -0.38159  -0.37247
 Alpha  occ. eigenvalues --   -0.37201  -0.36737  -0.36076  -0.35436  -0.34636
 Alpha  occ. eigenvalues --   -0.34472  -0.34433  -0.33206  -0.33006  -0.32852
 Alpha  occ. eigenvalues --   -0.32584  -0.32231  -0.31940  -0.31842  -0.31728
 Alpha  occ. eigenvalues --   -0.31249  -0.28269  -0.26718  -0.25407
 Alpha virt. eigenvalues --    0.03197   0.05101   0.06976   0.08325   0.08460
 Alpha virt. eigenvalues --    0.09167   0.09701   0.09966   0.10869   0.12048
 Alpha virt. eigenvalues --    0.12795   0.13184   0.14473   0.14694   0.15273

 Mulliken charges:
               1
     1  N   -0.310666
     2  C    0.180544
     3  C    0.035887
     4  N   -0.256621
     5  C    0.132963
     6  H    0.029706
     7  N   -0.275724
     8  C    0.123272
     9  H    0.020008
    10  N   -0.289775
    11  C    0.232331
    12  C    0.101212
    13  N   -0.041309
    14  H    0.107697
    15  H    0.088945
    16  H    0.028043
    17  H    0.035607
    18  H    0.026466
    19  N   -0.298683
    20  C    0.233356
    21  C    0.181902
    22  N   -0.108018
    23  H    0.108073
    24  H    0.117098
    25  N   -0.294392
    26  C    0.227039
    27  N   -0.116865
    28  H    0.121116
    29  C    0.140310
    30  O   -0.322339
    31  C    0.005380
    32  N   -0.223946
    33  C    0.124252
    34  H    0.028760
    35  H    0.025481
    36  H    0.026410
    37  H    0.022404
    38  H    0.053969
    39  H    0.064379
    40  H    0.073764
    41  H    0.030829
    42  C   -0.101944
    43  O   -0.272356
    44  C    0.181498
    45  H    0.135259
    46  N   -0.131803
    47  O   -0.352103
    48  C    0.354433
    49  H    0.046486
    50  C    0.174077
    51  C    0.035676
    52  N   -0.291407
    53  H    0.032750
    54  H    0.032296
    55  H    0.020263
    56  H    0.118780
    57  H    0.119929
    58  N   -0.055973
    59  C    0.128451
    60  C    0.229256
    61  N   -0.262018
    62  H    0.053088
    63  C    0.144481
    64  N   -0.301150
    65  H    0.025161
    66  C    0.118652
    67  N   -0.255053
    68  C    0.011837
    69  C    0.172855
    70  N   -0.300287
 Sum of Mulliken charges =  -0.00000

 Dipole moment (field-independent basis, Debye):
    X=              5.6885    Y=              5.9096    Z=              3.4657  Tot=              8.9047
 Quadrupole moment (field-independent basis, Debye-Ang):
   XX=           -138.1986   YY=           -227.0161   ZZ=           -254.6884
   XY=             15.1294   XZ=             18.7791   YZ=             -6.1952

 Normal termination of Gaussian 16 at Sat Jan 20 09:06:01 2018.
